============================== echo of input deck ==============================
start CH3F_opt_freq
title "CH3F acetone opt+freq"
memory total 2000 mb
echo

charge 0
geometry units angstrom
 C   0.000   0.000   0.000
 H   0.000   1.080   0.000
 H   1.020  -0.360   0.000
 H  -1.020  -0.360   0.000
 F  0.000   0.000   1.3
end

basis
    * library def2-svpd
end

dft
  xc b3lyp
  grid xfine
  iterations 200
end

cosmo
 dielec 25.2
 lineq  0
end

task dft optimize
task dft freq

#nwchem ~/СH3Cl+F=CH3F+Cl/inputs/acetone_env/CH3F_opt_freq.nw > ~/СH3Cl+F=CH3F+Cl/outputs/acetone_env/CH3F_opt_freq.out
#grep -i "Total DFT energy" "$HOME/СH3Cl+F=CH3F+Cl/outputs/acetone_env/CH3F_opt_freq.out"
================================================================================

         Total DFT energy =     -139.574385836789
@ Step       Energy      Delta E   Gmax     Grms     Xrms     Xmax   Walltime
@ ---- ---------------- -------- -------- -------- -------- -------- --------
@    0    -139.57438584  0.0D+00  0.19538  0.07262  0.00000  0.00000     16.3
         Total DFT energy =     -139.631155295472
         Total DFT energy =     -139.632830926692
@    1    -139.63283093 -5.8D-02  0.03062  0.02013  0.13226  0.38664     40.9
         Total DFT energy =     -139.650131722311
         Total DFT energy =     -139.653641794506
@    2    -139.65364179 -2.1D-02  0.01398  0.00801  0.10737  0.19615     67.5
         Total DFT energy =     -139.657110274074
         Total DFT energy =     -139.657166872513
@    3    -139.65716687 -3.5D-03  0.00321  0.00146  0.05494  0.07921     94.1
         Total DFT energy =     -139.657195663186
         Total DFT energy =     -139.657200127192
@    4    -139.65720013 -3.3D-05  0.00033  0.00022  0.00469  0.01250    118.0
         Total DFT energy =     -139.657203435414
         Total DFT energy =   -139.657203435414
@    5    -139.65720344 -3.3D-06  0.00016  0.00006  0.00175  0.00331    131.5
         Total DFT energy =     -139.657203524736

 Vector   63  Occ=0.000000D+00  E= 2.986575D+00  Symmetry=a"

 Vector   64  Occ=0.000000D+00  E= 2.986742D+00  Symmetry=a'

 Vector   65  Occ=0.000000D+00  E= 3.375022D+00  Symmetry=a'

 Vector   66  Occ=0.000000D+00  E= 3.375049D+00  Symmetry=a"

 Vector   67  Occ=0.000000D+00  E= 3.459492D+00  Symmetry=a'

 Vector   68  Occ=0.000000D+00  E= 3.459582D+00  Symmetry=a"

 Vector   69  Occ=0.000000D+00  E= 3.814532D+00  Symmetry=a'

 Vector   70  Occ=0.000000D+00  E= 5.329497D+00  Symmetry=a'

 Vector   71  Occ=0.000000D+00  E= 7.305977D+00  Symmetry=a'

         Total DFT energy =   -139.657203524736
@    6    -139.65720352 -8.9D-08  0.00003  0.00001  0.00019  0.00044    144.4
@    6    -139.65720352 -8.9D-08  0.00003  0.00001  0.00019  0.00044    144.4

 Output coordinates in angstroms (scale by  1.889725989 to convert to a.u.)

  No.       Tag          Charge          X              Y              Z
 ---- ---------------- ---------- -------------- -------------- --------------
    1 C                    6.0000     0.04611439     0.46742509     0.00000000
    2 H                    1.0000     1.09917604     0.77831588     0.00000000
    3 H                    1.0000    -0.46529221     0.82376950     0.90388607
    4 H                    1.0000    -0.46529221     0.82376950    -0.90388607
    5 F                    9.0000     0.00496669    -0.93832629     0.00000000

         Total DFT energy =     -139.657203524737

                       DFT Final Molecular Orbital Analysis
                       ------------------------------------

 Vector    1  Occ=2.000000D+00  E=-2.470485D+01  Symmetry=a'

 Vector    2  Occ=2.000000D+00  E=-1.026849D+01  Symmetry=a'

 Vector    3  Occ=2.000000D+00  E=-1.179798D+00  Symmetry=a'

 Vector    4  Occ=2.000000D+00  E=-6.952071D-01  Symmetry=a'

 Vector    5  Occ=2.000000D+00  E=-4.964154D-01  Symmetry=a'

 Vector    6  Occ=2.000000D+00  E=-4.868726D-01  Symmetry=a'

 Vector    7  Occ=2.000000D+00  E=-4.868458D-01  Symmetry=a"

 Vector    8  Occ=2.000000D+00  E=-3.584832D-01  Symmetry=a'

 Vector    9  Occ=2.000000D+00  E=-3.584514D-01  Symmetry=a"

 Vector   10  Occ=0.000000D+00  E= 2.085105D-02  Symmetry=a'

 Vector   11  Occ=0.000000D+00  E= 4.817229D-02  Symmetry=a'

 Vector   12  Occ=0.000000D+00  E= 9.951282D-02  Symmetry=a'

 Vector   13  Occ=0.000000D+00  E= 9.970523D-02  Symmetry=a"

 Vector   14  Occ=0.000000D+00  E= 1.254128D-01  Symmetry=a'

 Vector   15  Occ=0.000000D+00  E= 1.464570D-01  Symmetry=a"

 Vector   16  Occ=0.000000D+00  E= 1.467544D-01  Symmetry=a'

 Vector   17  Occ=0.000000D+00  E= 1.737541D-01  Symmetry=a"

 Vector   18  Occ=0.000000D+00  E= 1.737905D-01  Symmetry=a'

 Vector   19  Occ=0.000000D+00  E= 2.272868D-01  Symmetry=a'

 Vector   20  Occ=0.000000D+00  E= 2.466442D-01  Symmetry=a'

 Vector   21  Occ=0.000000D+00  E= 3.000094D-01  Symmetry=a'

 Vector   22  Occ=0.000000D+00  E= 3.001405D-01  Symmetry=a"

 Vector   23  Occ=0.000000D+00  E= 3.032524D-01  Symmetry=a'

 Vector   24  Occ=0.000000D+00  E= 3.493021D-01  Symmetry=a"

 Vector   25  Occ=0.000000D+00  E= 3.599250D-01  Symmetry=a'

 Vector   26  Occ=0.000000D+00  E= 3.601079D-01  Symmetry=a"

 Vector   27  Occ=0.000000D+00  E= 3.788634D-01  Symmetry=a'

 Vector   28  Occ=0.000000D+00  E= 4.067588D-01  Symmetry=a"

 Vector   29  Occ=0.000000D+00  E= 4.067748D-01  Symmetry=a'

 Vector   30  Occ=0.000000D+00  E= 4.372453D-01  Symmetry=a'

 Vector   31  Occ=0.000000D+00  E= 5.029559D-01  Symmetry=a'

 Vector   32  Occ=0.000000D+00  E= 5.031447D-01  Symmetry=a"

 Vector   33  Occ=0.000000D+00  E= 5.091753D-01  Symmetry=a'

 Vector   34  Occ=0.000000D+00  E= 6.225421D-01  Symmetry=a'

 Vector   35  Occ=0.000000D+00  E= 6.711414D-01  Symmetry=a'

 Vector   36  Occ=0.000000D+00  E= 6.713613D-01  Symmetry=a"

 Vector   37  Occ=0.000000D+00  E= 7.077493D-01  Symmetry=a'

 Vector   38  Occ=0.000000D+00  E= 7.365323D-01  Symmetry=a'

 Vector   39  Occ=0.000000D+00  E= 7.365400D-01  Symmetry=a"

 Vector   40  Occ=0.000000D+00  E= 9.135681D-01  Symmetry=a"

 Vector   41  Occ=0.000000D+00  E= 9.136996D-01  Symmetry=a'

 Vector   42  Occ=0.000000D+00  E= 9.494443D-01  Symmetry=a'

 Vector   43  Occ=0.000000D+00  E= 9.590280D-01  Symmetry=a'

 Vector   44  Occ=0.000000D+00  E= 9.591111D-01  Symmetry=a"

 Vector   45  Occ=0.000000D+00  E= 9.881947D-01  Symmetry=a'

 Vector   46  Occ=0.000000D+00  E= 1.258207D+00  Symmetry=a'

 Vector   47  Occ=0.000000D+00  E= 1.512029D+00  Symmetry=a'

 Vector   48  Occ=0.000000D+00  E= 1.512283D+00  Symmetry=a"

 Vector   49  Occ=0.000000D+00  E= 1.622152D+00  Symmetry=a'

 Vector   50  Occ=0.000000D+00  E= 1.622283D+00  Symmetry=a"

 Vector   51  Occ=0.000000D+00  E= 1.638488D+00  Symmetry=a"

 Vector   52  Occ=0.000000D+00  E= 1.887194D+00  Symmetry=a'

 Vector   53  Occ=0.000000D+00  E= 1.890118D+00  Symmetry=a'

 Vector   54  Occ=0.000000D+00  E= 1.890285D+00  Symmetry=a"

 Vector   55  Occ=0.000000D+00  E= 2.041471D+00  Symmetry=a'

 Vector   56  Occ=0.000000D+00  E= 2.102417D+00  Symmetry=a"

 Vector   57  Occ=0.000000D+00  E= 2.102480D+00  Symmetry=a'

 Vector   58  Occ=0.000000D+00  E= 2.198618D+00  Symmetry=a'

 Vector   59  Occ=0.000000D+00  E= 2.259601D+00  Symmetry=a'

 Vector   60  Occ=0.000000D+00  E= 2.483011D+00  Symmetry=a'

 Vector   61  Occ=0.000000D+00  E= 2.483238D+00  Symmetry=a"

 Vector   62  Occ=0.000000D+00  E= 2.736068D+00  Symmetry=a'

 Vector   63  Occ=0.000000D+00  E= 2.986575D+00  Symmetry=a"

 Vector   64  Occ=0.000000D+00  E= 2.986742D+00  Symmetry=a'

 Vector   65  Occ=0.000000D+00  E= 3.375022D+00  Symmetry=a'

 Vector   66  Occ=0.000000D+00  E= 3.375049D+00  Symmetry=a"

 Vector   67  Occ=0.000000D+00  E= 3.459492D+00  Symmetry=a'

 Vector   68  Occ=0.000000D+00  E= 3.459582D+00  Symmetry=a"

 Vector   69  Occ=0.000000D+00  E= 3.814532D+00  Symmetry=a'

 Vector   70  Occ=0.000000D+00  E= 5.329497D+00  Symmetry=a'

 Vector   71  Occ=0.000000D+00  E= 7.305977D+00  Symmetry=a'

     Multipole analysis of the density
     ---------------------------------

     L   x y z        total         alpha         beta         nuclear
     -   - - -        -----         -----         ----         -------
     0   0 0 0     -0.000000     -9.000000     -9.000000     18.000000

     1   1 0 0      0.026081     -0.449922     -0.449922      0.925924
     1   0 1 0      0.944413      3.509498      3.509498     -6.074583
     1   0 0 1     -0.000000     -0.000000     -0.000000      0.000000

     2   2 0 0     -8.851373     -7.379248     -7.379248      5.907122
     2   1 1 0      0.023611     -0.302994     -0.302994      0.629600
     2   1 0 1     -0.000000     -0.000000     -0.000000      0.000000
     2   0 2 0    -10.087484    -25.038116    -25.038116     39.988747
     2   0 1 1      0.000000      0.000000      0.000000      0.000000

         Total DFT energy =     -139.657173296676
         Total DFT energy =     -139.657173721803
         Total DFT energy =     -139.657183304052
         Total DFT energy =     -139.657182656846
         Total DFT energy =     -139.657173485351
         Total DFT energy =     -139.657173459060
         Total DFT energy =     -139.657187389494
         Total DFT energy =     -139.657187316212
         Total DFT energy =     -139.657199776049
         Total DFT energy =     -139.657199232522
         Total DFT energy =     -139.657201329575
         Total DFT energy =     -139.657201302407
         Total DFT energy =     -139.657197904758
         Total DFT energy =     -139.657198072084
         Total DFT energy =     -139.657199116752
         Total DFT energy =     -139.657199235837
         Total DFT energy =     -139.657190904810
         Total DFT energy =     -139.657191089492
         Total DFT energy =     -139.657201635654
         Total DFT energy =     -139.657201000574
         Total DFT energy =     -139.657186892488
         Total DFT energy =     -139.657187908615
         Total DFT energy =     -139.657201318375
         Total DFT energy =     -139.657201344675
 Zero-Point correction to Energy  =   24.346 kcal/mol  (  0.038798 au)
 Thermal correction to Energy     =   26.181 kcal/mol  (  0.041723 au)
 Thermal correction to Enthalpy   =   26.774 kcal/mol  (  0.042666 au)
 Total Entropy                    =   55.463 cal/mol-K
   - Translational                =   36.488 cal/mol-K (mol. weight =  34.0219)
   - Rotational                   =   18.744 cal/mol-K (symmetry #  =        1)
   - Vibrational                  =    0.232 cal/mol-K
   - Translational                  =    2.979 cal/mol-K
   - Rotational                     =    2.979 cal/mol-K
   - Vibrational                    =    1.098 cal/mol-K
 P.Frequency       -0.00       -0.00       -0.00        0.00        0.00        0.00
 P.Frequency      992.81     1178.41     1179.55     1439.70     1442.21     1443.86
 P.Frequency     3050.75     3155.08     3156.22

 Normal Eigenvalue ||           Projected Infra Red Intensities
  Mode   [cm**-1]  || [atomic units] [(debye/angs)**2] [(KM/mol)] [arbitrary]
 ------ ---------- || -------------- ----------------- ---------- -----------
    1       -0.000 ||    0.002465           0.057         2.403       1.204
    2       -0.000 ||    0.004081           0.094         3.978       1.993
    3       -0.000 ||    0.004857           0.112         4.735       2.373
    4        0.000 ||    0.005019           0.116         4.893       2.452
    5        0.000 ||    0.000011           0.000         0.011       0.005
    6        0.000 ||    0.006135           0.142         5.980       2.996
    7      992.813 ||    0.176662           4.076       172.219      86.291
    8     1178.410 ||    0.001936           0.045         1.888       0.946
    9     1179.551 ||    0.001792           0.041         1.747       0.875
   10     1439.697 ||    0.014108           0.325        13.753       6.891
   11     1442.208 ||    0.011476           0.265        11.187       5.605
   12     1443.859 ||    0.004165           0.096         4.060       2.035
   13     3050.746 ||    0.031383           0.724        30.594      15.329
   14     3155.081 ||    0.021461           0.495        20.921      10.483
   15     3156.218 ||    0.021541           0.497        20.999      10.522
 ----------------------------------------------------------------------------

 Total times  cpu:     4839.3s     wall:     2229.9s
