============================== echo of input deck ==============================
start F_opt_freq
title "F- acetone opt+freq"
memory total 1000 mb
echo

charge -1
geometry units angstrom
 F 0 0 0
end

basis
    * library def2-svpd
end

dft
  xc b3lyp
  mult 1
  grid xfine
  iterations 200
end

cosmo
 dielec 25.2
 lineq  0
end

task dft energy

#nwchem ~/СH3Cl+F=CH3F+Cl/inputs/acetone_env/F_opt_freq.nw > ~/СH3Cl+F=CH3F+Cl/outputs/acetone_env/F_opt_freq.out
#grep -i "Total DFT energy" "$HOME/СH3Cl+F=CH3F+Cl/outputs/acetone_env/F_opt_freq.out"
================================================================================

 Output coordinates in angstroms (scale by  1.889725989 to convert to a.u.)

  No.       Tag          Charge          X              Y              Z
 ---- ---------------- ---------- -------------- -------------- --------------
    1 F                    9.0000     0.00000000     0.00000000     0.00000000

         Total DFT energy =      -99.925451884830

                       DFT Final Molecular Orbital Analysis
                       ------------------------------------

 Vector    1  Occ=2.000000D+00  E=-2.455183D+01

 Vector    2  Occ=2.000000D+00  E=-9.638758D-01

 Vector    3  Occ=2.000000D+00  E=-2.760902D-01

 Vector    4  Occ=2.000000D+00  E=-2.760902D-01

 Vector    5  Occ=2.000000D+00  E=-2.760902D-01

 Vector    6  Occ=0.000000D+00  E= 6.034447D-02

 Vector    7  Occ=0.000000D+00  E= 1.584941D-01

 Vector    8  Occ=0.000000D+00  E= 1.584941D-01

 Vector    9  Occ=0.000000D+00  E= 1.584941D-01

 Vector   10  Occ=0.000000D+00  E= 5.843883D-01

 Vector   11  Occ=0.000000D+00  E= 5.879049D-01

 Vector   12  Occ=0.000000D+00  E= 5.879049D-01

 Vector   13  Occ=0.000000D+00  E= 5.908205D-01

 Vector   14  Occ=0.000000D+00  E= 5.908205D-01

 Vector   15  Occ=0.000000D+00  E= 5.908205D-01

 Vector   16  Occ=0.000000D+00  E= 1.436339D+00

 Vector   17  Occ=0.000000D+00  E= 1.436339D+00

 Vector   18  Occ=0.000000D+00  E= 1.436339D+00

 Vector   19  Occ=0.000000D+00  E= 2.055307D+00

 Vector   20  Occ=0.000000D+00  E= 3.437941D+00

 Vector   21  Occ=0.000000D+00  E= 3.437941D+00

 Vector   22  Occ=0.000000D+00  E= 3.438266D+00

 Vector   23  Occ=0.000000D+00  E= 3.438266D+00

 Vector   24  Occ=0.000000D+00  E= 3.438266D+00

 Vector   25  Occ=0.000000D+00  E= 7.317858D+00

 Total times  cpu:        3.6s     wall:        1.5s
