============================== echo of input deck ==============================
start Sn2_saddle
title "СH3Cl+F=CH3F+Cl acetone saddle+freq"
memory total 1500 mb
echo

charge -1
geometry units angstrom
  C   0.000   0.000   0.000
  H   0.000   1.080   0.000
  H   1.020  -0.360   0.000
  H  -1.020  -0.360   0.000
  F   0.000   0.000  -2.00
  Cl  0.000   0.000   2.20
end

basis
    * library def2-svpd
end

dft
  xc b3lyp
  mult 1
  grid xfine
  iterations 200
end

cosmo
 dielec 25.2
 lineq  0
end

task dft saddle
task dft freq

#nwchem ~/СH3Cl+F=CH3F+Cl/inputs/acetone_env/TS_via_saddle_freq.nw > ~/СH3Cl+F=CH3F+Cl/outputs/acetone_env/TS_via_saddle_freq.out
#grep -i "Total DFT energy" "$HOME/СH3Cl+F=CH3F+Cl/outputs/acetone_env/TS_via_saddle_freq.out"
================================================================================

         Total DFT energy =     -599.871607682813
@ Step       Energy      Delta E   Gmax     Grms     Xrms     Xmax   Walltime
@ ---- ---------------- -------- -------- -------- -------- -------- --------
@    0    -599.87160768  0.0D+00  0.01537  0.00519  0.00000  0.00000     45.1
         Total DFT energy =     -599.871048165102
@    1    -599.87104817  5.6D-04  0.01571  0.00551  0.00397  0.00801     71.3
         Total DFT energy =     -599.874091590640
@    2    -599.87409159 -3.0D-03  0.01382  0.00396  0.02884  0.04992     97.4
         Total DFT energy =     -599.876088246116
@    3    -599.87608825 -2.0D-03  0.01191  0.00324  0.02055  0.03839    122.2
         Total DFT energy =     -599.877795955270
@    4    -599.87779596 -1.7D-03  0.00982  0.00263  0.01772  0.03269    148.4
         Total DFT energy =     -599.879048566853
@    5    -599.87904857 -1.3D-03  0.00759  0.00206  0.01691  0.03849    174.5
         Total DFT energy =     -599.879963735005
@    6    -599.87996374 -9.2D-04  0.00525  0.00150  0.01759  0.03151    200.6
         Total DFT energy =     -599.880579364841
@    7    -599.88057936 -6.2D-04  0.00290  0.00094  0.01482  0.03020    226.8
         Total DFT energy =     -599.880946508685
@    8    -599.88094651 -3.7D-04  0.00089  0.00026  0.01900  0.03906    252.8
         Total DFT energy =     -599.880973194437
@    9    -599.88097319 -2.7D-05  0.00005  0.00002  0.00572  0.00941    279.5
         Total DFT energy =     -599.880973252783
@   10    -599.88097325 -5.8D-08  0.00001  0.00000  0.00035  0.00086    306.8
@   10    -599.88097325 -5.8D-08  0.00001  0.00000  0.00035  0.00086    306.8

 Output coordinates in angstroms (scale by  1.889725989 to convert to a.u.)

  No.       Tag          Charge          X              Y              Z
 ---- ---------------- ---------- -------------- -------------- --------------
    1 C                    6.0000     0.04604954     0.52011301     0.00000000
    2 H                    1.0000     1.12605088     0.58173467     0.00000000
    3 H                    1.0000    -0.49441665     0.58351640     0.93499697
    4 H                    1.0000    -0.49441665     0.58351640    -0.93499697
    5 F                    9.0000     0.05901331     2.55734191     0.00000000
    6 Cl                  17.0000     0.05312012    -1.70023412     0.00000000

         Total DFT energy =     -599.880973252784

                       DFT Final Molecular Orbital Analysis
                       ------------------------------------

 Vector    1  Occ=2.000000D+00  E=-1.014839D+02  Symmetry=a'

 Vector   21  Occ=0.000000D+00  E= 6.314649D-02  Symmetry=a'

 Vector   22  Occ=0.000000D+00  E= 7.852045D-02  Symmetry=a'

 Vector   23  Occ=0.000000D+00  E= 7.862009D-02  Symmetry=a"

 Vector   24  Occ=0.000000D+00  E= 8.038535D-02  Symmetry=a'

 Vector   25  Occ=0.000000D+00  E= 1.221786D-01  Symmetry=a'

 Vector   26  Occ=0.000000D+00  E= 1.230578D-01  Symmetry=a"

 Vector   27  Occ=0.000000D+00  E= 1.414216D-01  Symmetry=a'

 Vector   28  Occ=0.000000D+00  E= 1.434611D-01  Symmetry=a"

 Vector   29  Occ=0.000000D+00  E= 1.437092D-01  Symmetry=a'

 Vector   30  Occ=0.000000D+00  E= 2.020897D-01  Symmetry=a"

 Vector   31  Occ=0.000000D+00  E= 2.022078D-01  Symmetry=a'

 Vector   32  Occ=0.000000D+00  E= 2.376543D-01  Symmetry=a'

 Vector   33  Occ=0.000000D+00  E= 2.405546D-01  Symmetry=a'

 Vector   34  Occ=0.000000D+00  E= 2.427302D-01  Symmetry=a"

 Vector   35  Occ=0.000000D+00  E= 2.621964D-01  Symmetry=a'

 Vector   36  Occ=0.000000D+00  E= 2.833548D-01  Symmetry=a'

 Vector   37  Occ=0.000000D+00  E= 2.839089D-01  Symmetry=a"

 Vector   38  Occ=0.000000D+00  E= 3.076572D-01  Symmetry=a'

 Vector   39  Occ=0.000000D+00  E= 3.420017D-01  Symmetry=a'

 Vector   40  Occ=0.000000D+00  E= 3.489029D-01  Symmetry=a"

 Vector   41  Occ=0.000000D+00  E= 3.719038D-01  Symmetry=a'

 Vector   42  Occ=0.000000D+00  E= 3.721950D-01  Symmetry=a"

 Vector   43  Occ=0.000000D+00  E= 3.823260D-01  Symmetry=a'

 Vector   44  Occ=0.000000D+00  E= 4.099267D-01  Symmetry=a'

 Vector   45  Occ=0.000000D+00  E= 4.102345D-01  Symmetry=a"

 Vector   46  Occ=0.000000D+00  E= 4.297709D-01  Symmetry=a'

 Vector   47  Occ=0.000000D+00  E= 4.511569D-01  Symmetry=a'

 Vector   48  Occ=0.000000D+00  E= 4.522387D-01  Symmetry=a"

 Vector   49  Occ=0.000000D+00  E= 4.722785D-01  Symmetry=a'

 Vector   50  Occ=0.000000D+00  E= 4.723610D-01  Symmetry=a"

 Vector   51  Occ=0.000000D+00  E= 5.182432D-01  Symmetry=a'

 Vector   52  Occ=0.000000D+00  E= 6.256665D-01  Symmetry=a'

 Vector   53  Occ=0.000000D+00  E= 6.866163D-01  Symmetry=a'

 Vector   54  Occ=0.000000D+00  E= 7.037319D-01  Symmetry=a'

 Vector   55  Occ=0.000000D+00  E= 7.049083D-01  Symmetry=a"

 Vector   56  Occ=0.000000D+00  E= 7.822603D-01  Symmetry=a"

 Vector   57  Occ=0.000000D+00  E= 7.830395D-01  Symmetry=a'

 Vector   58  Occ=0.000000D+00  E= 8.026665D-01  Symmetry=a'

 Vector   59  Occ=0.000000D+00  E= 9.023660D-01  Symmetry=a'

 Vector   60  Occ=0.000000D+00  E= 9.024964D-01  Symmetry=a"

 Vector   61  Occ=0.000000D+00  E= 9.313169D-01  Symmetry=a'

 Vector   62  Occ=0.000000D+00  E= 9.955592D-01  Symmetry=a'

 Vector   63  Occ=0.000000D+00  E= 9.971459D-01  Symmetry=a"

 Vector   64  Occ=0.000000D+00  E= 1.011048D+00  Symmetry=a'

 Vector   65  Occ=0.000000D+00  E= 1.012429D+00  Symmetry=a"

 Vector   66  Occ=0.000000D+00  E= 1.059271D+00  Symmetry=a'

 Vector   67  Occ=0.000000D+00  E= 1.094760D+00  Symmetry=a'

 Vector   68  Occ=0.000000D+00  E= 1.127463D+00  Symmetry=a"

 Vector   69  Occ=0.000000D+00  E= 1.128173D+00  Symmetry=a'

 Vector   70  Occ=0.000000D+00  E= 1.181412D+00  Symmetry=a"

 Vector   71  Occ=0.000000D+00  E= 1.182116D+00  Symmetry=a'

 Vector   72  Occ=0.000000D+00  E= 1.182732D+00  Symmetry=a'

 Vector   73  Occ=0.000000D+00  E= 1.298539D+00  Symmetry=a'

 Vector   74  Occ=0.000000D+00  E= 1.492674D+00  Symmetry=a"

 Vector   75  Occ=0.000000D+00  E= 1.494191D+00  Symmetry=a'

 Vector   76  Occ=0.000000D+00  E= 1.523653D+00  Symmetry=a'

 Vector   77  Occ=0.000000D+00  E= 1.528266D+00  Symmetry=a"

 Vector   78  Occ=0.000000D+00  E= 1.534191D+00  Symmetry=a'

 Vector   79  Occ=0.000000D+00  E= 1.612658D+00  Symmetry=a"

 Vector   80  Occ=0.000000D+00  E= 1.796831D+00  Symmetry=a'

 Vector   81  Occ=0.000000D+00  E= 1.837698D+00  Symmetry=a"

 Vector   82  Occ=0.000000D+00  E= 1.838413D+00  Symmetry=a'

 Vector   83  Occ=0.000000D+00  E= 2.091329D+00  Symmetry=a'

 Vector   84  Occ=0.000000D+00  E= 2.133393D+00  Symmetry=a'

 Vector   85  Occ=0.000000D+00  E= 2.254607D+00  Symmetry=a"

 Vector   86  Occ=0.000000D+00  E= 2.255057D+00  Symmetry=a'

 Vector   87  Occ=0.000000D+00  E= 2.363062D+00  Symmetry=a"

 Vector   88  Occ=0.000000D+00  E= 2.363783D+00  Symmetry=a'

 Vector   89  Occ=0.000000D+00  E= 2.432626D+00  Symmetry=a'

 Vector   90  Occ=0.000000D+00  E= 2.961759D+00  Symmetry=a'

 Vector   91  Occ=0.000000D+00  E= 3.003875D+00  Symmetry=a'

 Vector   92  Occ=0.000000D+00  E= 3.004918D+00  Symmetry=a"

 Vector   93  Occ=0.000000D+00  E= 3.450773D+00  Symmetry=a'

 Vector   94  Occ=0.000000D+00  E= 3.451039D+00  Symmetry=a"

 Vector   95  Occ=0.000000D+00  E= 3.509061D+00  Symmetry=a"

 Vector   96  Occ=0.000000D+00  E= 3.509413D+00  Symmetry=a'

 Vector   97  Occ=0.000000D+00  E= 3.568485D+00  Symmetry=a'

 Vector   98  Occ=0.000000D+00  E= 3.994216D+00  Symmetry=a'

 Vector   99  Occ=0.000000D+00  E= 5.256081D+00  Symmetry=a'

 Vector  100  Occ=0.000000D+00  E= 7.402592D+00  Symmetry=a'

     Multipole analysis of the density
     ---------------------------------

     L   x y z        total         alpha         beta         nuclear
     -   - - -        -----         -----         ----         -------
     0   0 0 0     -1.000000    -18.000000    -18.000000     35.000000

     1   1 0 0     -0.123654     -1.807628     -1.807628      3.491603
     1   0 1 0     -1.307927      0.308339      0.308339     -1.924605
     1   0 0 1     -0.000000     -0.000000     -0.000000      0.000000

     2   2 0 0    -20.885668    -13.744145    -13.744145      6.602621
     2   1 1 0     -0.204407     -0.181910     -0.181910      0.159414
     2   1 0 1      0.000000      0.000000      0.000000      0.000000
     2   0 2 0    -47.158897   -221.141467   -221.141467    395.124037
     2   0 1 1      0.000000      0.000000      0.000000      0.000000

         Total DFT energy =     -599.880938728156
         Total DFT energy =     -599.880939380842
         Total DFT energy =     -599.880977027798
         Total DFT energy =     -599.880977208643
         Total DFT energy =     -599.880939076143
         Total DFT energy =     -599.880939076465
         Total DFT energy =     -599.880954472147
         Total DFT energy =     -599.880953705302
         Total DFT energy =     -599.880970840823
         Total DFT energy =     -599.880971658645
         Total DFT energy =     -599.880971203474
         Total DFT energy =     -599.880971203710
         Total DFT energy =     -599.880966945349
         Total DFT energy =     -599.880966952699
         Total DFT energy =     -599.880971612479
         Total DFT energy =     -599.880971021538
         Total DFT energy =     -599.880958169438
         Total DFT energy =     -599.880958555786
         Total DFT energy =     -599.880973642077
         Total DFT energy =     -599.880971995423
         Total DFT energy =     -599.880972067426
         Total DFT energy =     -599.880972114332
         Total DFT energy =     -599.880972817569
         Total DFT energy =     -599.880972817514
         Total DFT energy =     -599.880971966383
         Total DFT energy =     -599.880973723724
         Total DFT energy =     -599.880971406433
         Total DFT energy =     -599.880971529535
         Total DFT energy =     -599.880972915674
         Total DFT energy =     -599.880972882533
 Zero-Point correction to Energy  =   23.483 kcal/mol  (  0.037422 au)
 Thermal correction to Energy     =   26.280 kcal/mol  (  0.041880 au)
 Thermal correction to Enthalpy   =   26.873 kcal/mol  (  0.042824 au)
 Total Entropy                    =   67.986 cal/mol-K
   - Translational                =   38.594 cal/mol-K (mol. weight =  68.9907)
   - Rotational                   =   23.656 cal/mol-K (symmetry #  =        1)
   - Vibrational                  =    5.736 cal/mol-K
   - Translational                  =    2.979 cal/mol-K
   - Rotational                     =    2.979 cal/mol-K
   - Vibrational                    =    6.664 cal/mol-K
 P.Frequency     -489.10       -0.00       -0.00       -0.00        0.00        0.00
 P.Frequency        0.00      230.17      230.48      258.41      955.75      967.67
 P.Frequency     1145.01     1357.31     1360.63     3171.25     3378.62     3378.83

 Normal Eigenvalue ||           Projected Infra Red Intensities
  Mode   [cm**-1]  || [atomic units] [(debye/angs)**2] [(KM/mol)] [arbitrary]
 ------ ---------- || -------------- ----------------- ---------- -----------
    1     -489.104 ||    1.705281          39.342      1662.392     158.083
    2       -0.000 ||    0.014498           0.334        14.133       1.344
    3       -0.000 ||    0.013524           0.312        13.184       1.254
    4       -0.000 ||    0.003253           0.075         3.171       0.302
    5        0.000 ||    0.002533           0.058         2.469       0.235
    6        0.000 ||    0.012609           0.291        12.292       1.169
    7        0.000 ||    0.001681           0.039         1.638       0.156
    8      230.168 ||    0.035638           0.822        34.741       3.304
    9      230.476 ||    0.035136           0.811        34.252       3.257
   10      258.409 ||    0.006967           0.161         6.791       0.646
   11      955.748 ||    0.001051           0.024         1.025       0.097
   12      967.666 ||    0.001140           0.026         1.111       0.106
   13     1145.013 ||    0.077581           1.790        75.629       7.192
   14     1357.311 ||    0.012112           0.279        11.808       1.123
   15     1360.628 ||    0.009656           0.223         9.413       0.895
   16     3171.253 ||    0.000341           0.008         0.333       0.032
   17     3378.616 ||    0.003946           0.091         3.847       0.366
   18     3378.832 ||    0.004764           0.110         4.644       0.442
 ----------------------------------------------------------------------------

 Total times  cpu:     3946.4s     wall:     1705.8s
