============================== echo of input deck ==============================
start CH3Cl_opt_freq
title "CH3Cl water opt+freq"
memory total 2000 mb
echo

charge 0
geometry units angstrom
 C   0.000   0.000   0.000
 H   0.000   1.080   0.000
 H   1.020  -0.360   0.000
 H  -1.020  -0.360   0.000
 Cl  0.000   0.000   1.78
end

basis
    * library def2-svpd
end

dft
  xc b3lyp
  grid xfine
  iterations 200
end

cosmo
 dielec 78.4
 lineq  0
end

task dft optimize
task dft freq

#nwchem ~/СH3Cl+F=CH3F+Cl/inputs/water_env/CH3Cl_opt_freq.nw > ~/СH3Cl+F=CH3F+Cl/outputs/water_env/CH3Cl_opt_freq.out
#grep -i "Total DFT energy" "$HOME/СH3Cl+F=CH3F+Cl/outputs/water_env/CH3Cl_opt_freq.out"
================================================================================

         Total DFT energy =     -499.925271762964
@ Step       Energy      Delta E   Gmax     Grms     Xrms     Xmax   Walltime
@ ---- ---------------- -------- -------- -------- -------- -------- --------
@    0    -499.92527176  0.0D+00  0.07604  0.03443  0.00000  0.00000     14.0
         Total DFT energy =     -499.954076909702
         Total DFT energy =     -499.958686735233
@    1    -499.95868674 -3.3D-02  0.02372  0.01029  0.12495  0.32503     39.4
         Total DFT energy =     -499.966976228403
         Total DFT energy =     -499.972324972971
@    2    -499.97232497 -1.4D-02  0.01164  0.00654  0.14060  0.23833     63.9
         Total DFT energy =     -499.973663814176
         Total DFT energy =     -499.973940507141
@    3    -499.97394051 -1.6D-03  0.00126  0.00060  0.02792  0.07649     87.7
         Total DFT energy =     -499.973961382797
         Total DFT energy =     -499.973961668504
@    4    -499.97396167 -2.1D-05  0.00018  0.00007  0.00555  0.01442    110.3
         Total DFT energy =     -499.973961842464

 Vector   71  Occ=0.000000D+00  E= 2.768834D+00  Symmetry=a'

 Vector   72  Occ=0.000000D+00  E= 2.994234D+00  Symmetry=a"

 Vector   73  Occ=0.000000D+00  E= 2.994266D+00  Symmetry=a'

 Vector   74  Occ=0.000000D+00  E= 3.942336D+00  Symmetry=a'

 Vector   75  Occ=0.000000D+00  E= 5.217648D+00  Symmetry=a'

         Total DFT energy =   -499.973961842464
@    5    -499.97396184 -1.7D-07  0.00002  0.00001  0.00038  0.00063    123.1
@    5    -499.97396184 -1.7D-07  0.00002  0.00001  0.00038  0.00063    123.1

 Output coordinates in angstroms (scale by  1.889725989 to convert to a.u.)

  No.       Tag          Charge          X              Y              Z
 ---- ---------------- ---------- -------------- -------------- --------------
    1 C                    6.0000     0.05171815     0.97118777     0.00000000
    2 H                    1.0000     1.10352602     1.27421915     0.00000000
    3 H                    1.0000    -0.45925115     1.32036949     0.90282679
    4 H                    1.0000    -0.45925115     1.32036949    -0.90282679
    5 Cl                  17.0000    -0.00325321    -0.84319957     0.00000000

         Total DFT energy =     -499.973961842466

                       DFT Final Molecular Orbital Analysis
                       ------------------------------------

 Vector    1  Occ=2.000000D+00  E=-1.015448D+02  Symmetry=a'

 Vector    2  Occ=2.000000D+00  E=-1.025248D+01  Symmetry=a'

 Vector    3  Occ=2.000000D+00  E=-9.475562D+00  Symmetry=a'

 Vector    4  Occ=2.000000D+00  E=-7.245454D+00  Symmetry=a'

 Vector    5  Occ=2.000000D+00  E=-7.236094D+00  Symmetry=a'

 Vector    6  Occ=2.000000D+00  E=-7.236094D+00  Symmetry=a"

 Vector    7  Occ=2.000000D+00  E=-8.561895D-01  Symmetry=a'

 Vector    8  Occ=2.000000D+00  E=-6.745228D-01  Symmetry=a'

 Vector    9  Occ=2.000000D+00  E=-4.482152D-01  Symmetry=a'

 Vector   10  Occ=2.000000D+00  E=-4.481338D-01  Symmetry=a"

 Vector   11  Occ=2.000000D+00  E=-4.193217D-01  Symmetry=a'

 Vector   12  Occ=2.000000D+00  E=-3.128468D-01  Symmetry=a'

 Vector   13  Occ=2.000000D+00  E=-3.128194D-01  Symmetry=a"

 Vector   14  Occ=0.000000D+00  E=-3.648395D-03  Symmetry=a'

 Vector   15  Occ=0.000000D+00  E= 1.332747D-02  Symmetry=a'

 Vector   16  Occ=0.000000D+00  E= 6.589689D-02  Symmetry=a'

 Vector   17  Occ=0.000000D+00  E= 6.600216D-02  Symmetry=a"

 Vector   18  Occ=0.000000D+00  E= 8.133621D-02  Symmetry=a'

 Vector   19  Occ=0.000000D+00  E= 8.996804D-02  Symmetry=a'

 Vector   20  Occ=0.000000D+00  E= 1.209276D-01  Symmetry=a'

 Vector   21  Occ=0.000000D+00  E= 1.210460D-01  Symmetry=a"

 Vector   22  Occ=0.000000D+00  E= 1.578464D-01  Symmetry=a'

 Vector   23  Occ=0.000000D+00  E= 1.579166D-01  Symmetry=a"

 Vector   24  Occ=0.000000D+00  E= 2.091259D-01  Symmetry=a'

 Vector   25  Occ=0.000000D+00  E= 2.094398D-01  Symmetry=a"

 Vector   26  Occ=0.000000D+00  E= 2.134041D-01  Symmetry=a'

 Vector   27  Occ=0.000000D+00  E= 2.519038D-01  Symmetry=a'

 Vector   28  Occ=0.000000D+00  E= 2.528506D-01  Symmetry=a"

 Vector   29  Occ=0.000000D+00  E= 2.834145D-01  Symmetry=a'

 Vector   30  Occ=0.000000D+00  E= 3.220911D-01  Symmetry=a'

 Vector   31  Occ=0.000000D+00  E= 3.482741D-01  Symmetry=a"

 Vector   32  Occ=0.000000D+00  E= 3.502338D-01  Symmetry=a'

 Vector   33  Occ=0.000000D+00  E= 3.504995D-01  Symmetry=a"

 Vector   34  Occ=0.000000D+00  E= 3.565889D-01  Symmetry=a'

 Vector   35  Occ=0.000000D+00  E= 3.770348D-01  Symmetry=a'

 Vector   36  Occ=0.000000D+00  E= 3.901332D-01  Symmetry=a"

 Vector   37  Occ=0.000000D+00  E= 3.901895D-01  Symmetry=a'

 Vector   38  Occ=0.000000D+00  E= 4.261166D-01  Symmetry=a'

 Vector   39  Occ=0.000000D+00  E= 4.403292D-01  Symmetry=a'

 Vector   40  Occ=0.000000D+00  E= 4.404305D-01  Symmetry=a"

 Vector   41  Occ=0.000000D+00  E= 4.781858D-01  Symmetry=a'

 Vector   42  Occ=0.000000D+00  E= 4.782630D-01  Symmetry=a"

 Vector   43  Occ=0.000000D+00  E= 5.204442D-01  Symmetry=a'

 Vector   44  Occ=0.000000D+00  E= 8.175646D-01  Symmetry=a'

 Vector   45  Occ=0.000000D+00  E= 8.176643D-01  Symmetry=a"

 Vector   46  Occ=0.000000D+00  E= 8.328613D-01  Symmetry=a'

 Vector   47  Occ=0.000000D+00  E= 8.526209D-01  Symmetry=a'

 Vector   48  Occ=0.000000D+00  E= 8.527179D-01  Symmetry=a"

 Vector   49  Occ=0.000000D+00  E= 9.272921D-01  Symmetry=a'

 Vector   50  Occ=0.000000D+00  E= 9.595112D-01  Symmetry=a'

 Vector   51  Occ=0.000000D+00  E= 9.600494D-01  Symmetry=a"

 Vector   52  Occ=0.000000D+00  E= 9.879674D-01  Symmetry=a'

 Vector   53  Occ=0.000000D+00  E= 1.083800D+00  Symmetry=a'

 Vector   54  Occ=0.000000D+00  E= 1.108720D+00  Symmetry=a'

 Vector   55  Occ=0.000000D+00  E= 1.108852D+00  Symmetry=a"

 Vector   56  Occ=0.000000D+00  E= 1.234453D+00  Symmetry=a'

 Vector   57  Occ=0.000000D+00  E= 1.234579D+00  Symmetry=a"

 Vector   58  Occ=0.000000D+00  E= 1.256650D+00  Symmetry=a'

 Vector   59  Occ=0.000000D+00  E= 1.502169D+00  Symmetry=a'

 Vector   60  Occ=0.000000D+00  E= 1.525101D+00  Symmetry=a'

 Vector   61  Occ=0.000000D+00  E= 1.525350D+00  Symmetry=a"

 Vector   62  Occ=0.000000D+00  E= 1.635938D+00  Symmetry=a"

 Vector   63  Occ=0.000000D+00  E= 1.834471D+00  Symmetry=a'

 Vector   64  Occ=0.000000D+00  E= 1.834602D+00  Symmetry=a"

 Vector   65  Occ=0.000000D+00  E= 2.016498D+00  Symmetry=a'

 Vector   66  Occ=0.000000D+00  E= 2.016505D+00  Symmetry=a"

 Vector   67  Occ=0.000000D+00  E= 2.078142D+00  Symmetry=a'

 Vector   68  Occ=0.000000D+00  E= 2.231579D+00  Symmetry=a'

 Vector   69  Occ=0.000000D+00  E= 2.473997D+00  Symmetry=a'

 Vector   70  Occ=0.000000D+00  E= 2.474159D+00  Symmetry=a"

 Vector   71  Occ=0.000000D+00  E= 2.768834D+00  Symmetry=a'

 Vector   72  Occ=0.000000D+00  E= 2.994234D+00  Symmetry=a"

 Vector   73  Occ=0.000000D+00  E= 2.994266D+00  Symmetry=a'

 Vector   74  Occ=0.000000D+00  E= 3.942336D+00  Symmetry=a'

 Vector   75  Occ=0.000000D+00  E= 5.217648D+00  Symmetry=a'

     Multipole analysis of the density
     ---------------------------------

     L   x y z        total         alpha         beta         nuclear
     -   - - -        -----         -----         ----         -------
     0   0 0 0     -0.000000    -13.000000    -13.000000     26.000000

     1   1 0 0      0.030400     -0.400566     -0.400566      0.831532
     1   0 1 0      1.062532      4.870368      4.870368     -8.678204
     1   0 0 1     -0.000000     -0.000000     -0.000000      0.000000

     2   2 0 0    -15.004820    -10.458933    -10.458933      5.913045
     2   1 1 0      0.070579     -0.931349     -0.931349      1.933276
     2   1 0 1     -0.000000     -0.000000     -0.000000      0.000000
     2   0 2 0    -14.109241    -47.865410    -47.865410     81.621580
     2   0 1 1      0.000000      0.000000      0.000000      0.000000

         Total DFT energy =     -499.973932733570
         Total DFT energy =     -499.973933112934
         Total DFT energy =     -499.973946832357
         Total DFT energy =     -499.973946238181
         Total DFT energy =     -499.973932840736
         Total DFT energy =     -499.973932853221
         Total DFT energy =     -499.973945348475
         Total DFT energy =     -499.973945207617
         Total DFT energy =     -499.973958498194
         Total DFT energy =     -499.973958297891
         Total DFT energy =     -499.973959788185
         Total DFT energy =     -499.973959785730
         Total DFT energy =     -499.973956365645
         Total DFT energy =     -499.973956430487
         Total DFT energy =     -499.973957959991
         Total DFT energy =     -499.973958267890
         Total DFT energy =     -499.973948966804
         Total DFT energy =     -499.973949076993
         Total DFT energy =     -499.973961129547
         Total DFT energy =     -499.973960526331
         Total DFT energy =     -499.973952227051
         Total DFT energy =     -499.973952011839
         Total DFT energy =     -499.973960798931
         Total DFT energy =     -499.973960862446
 Zero-Point correction to Energy  =   23.378 kcal/mol  (  0.037255 au)
 Thermal correction to Energy     =   25.288 kcal/mol  (  0.040300 au)
 Thermal correction to Enthalpy   =   25.881 kcal/mol  (  0.041243 au)
 Total Entropy                    =   58.253 cal/mol-K
   - Translational                =   37.635 cal/mol-K (mol. weight =  49.9923)
   - Rotational                   =   20.058 cal/mol-K (symmetry #  =        1)
   - Vibrational                  =    0.560 cal/mol-K
   - Translational                  =    2.979 cal/mol-K
   - Rotational                     =    2.979 cal/mol-K
   - Vibrational                    =    1.918 cal/mol-K
 P.Frequency       -0.00       -0.00        0.00        0.00        0.00        0.00
 P.Frequency      684.58     1009.50     1011.18     1336.29     1419.61     1424.69
 P.Frequency     3079.54     3197.01     3198.63

 Normal Eigenvalue ||           Projected Infra Red Intensities
  Mode   [cm**-1]  || [atomic units] [(debye/angs)**2] [(KM/mol)] [arbitrary]
 ------ ---------- || -------------- ----------------- ---------- -----------
    1       -0.000 ||    0.001776           0.041         1.731       1.784
    2       -0.000 ||    0.003574           0.082         3.484       3.591
    3        0.000 ||    0.002234           0.052         2.178       2.244
    4        0.000 ||    0.002330           0.054         2.272       2.341
    5        0.000 ||    0.000003           0.000         0.003       0.003
    6        0.000 ||    0.005262           0.121         5.129       5.286
    7      684.577 ||    0.056359           1.300        54.941      56.617
    8     1009.497 ||    0.004396           0.101         4.285       4.416
    9     1011.182 ||    0.004401           0.102         4.290       4.421
   10     1336.289 ||    0.018742           0.432        18.271      18.828
   11     1419.615 ||    0.014799           0.341        14.427      14.867
   12     1424.690 ||    0.016262           0.375        15.853      16.336
   13     3079.541 ||    0.017656           0.407        17.212      17.737
   14     3197.007 ||    0.000754           0.017         0.735       0.757
   15     3198.625 ||    0.000768           0.018         0.749       0.772
 ----------------------------------------------------------------------------

 Total times  cpu:     1730.1s     wall:      694.0s
