============================== echo of input deck ==============================
start CH3F_opt_freq
title "CH3F water opt+freq"
memory total 2000 mb
echo

charge 0
geometry units angstrom
 C   0.000   0.000   0.000
 H   0.000   1.080   0.000
 H   1.020  -0.360   0.000
 H  -1.020  -0.360   0.000
 F  0.000   0.000   1.3
end

basis
    * library def2-svpd
end

dft
  xc b3lyp
  grid xfine
  iterations 200
end

cosmo
 dielec 78.4
 lineq  0
end

task dft optimize
task dft freq

#nwchem ~/СH3Cl+F=CH3F+Cl/inputs/water_env/CH3F_opt_freq.nw > ~/СH3Cl+F=CH3F+Cl/outputs/water_env/CH3F_opt_freq.out
#grep -i "Total DFT energy" "$HOME/СH3Cl+F=CH3F+Cl/outputs/water_env/CH3F_opt_freq.out"
================================================================================

         Total DFT energy =     -139.574499255203
@ Step       Energy      Delta E   Gmax     Grms     Xrms     Xmax   Walltime
@ ---- ---------------- -------- -------- -------- -------- -------- --------
@    0    -139.57449926  0.0D+00  0.19562  0.07269  0.00000  0.00000    113.7
         Total DFT energy =     -139.625147883092
         Total DFT energy =     -139.626919277096
@    1    -139.62691928 -5.2D-02  0.03190  0.01973  0.12247  0.37547    307.5
         Total DFT energy =     -139.642140168625
         Total DFT energy =     -139.650315845818
@    2    -139.65031585 -2.3D-02  0.02494  0.01459  0.11427  0.20238    541.3
         Total DFT energy =     -139.656289600932
         Total DFT energy =     -139.656449934233
@    3    -139.65644993 -6.1D-03  0.00665  0.00354  0.06058  0.11283    753.5
         Total DFT energy =     -139.657294183308
         Total DFT energy =     -139.657361690259
@    4    -139.65736169 -9.1D-04  0.00094  0.00038  0.03445  0.05978    982.3
         Total DFT energy =     -139.657364386630
         Total DFT energy =   -139.657364386630
@    5    -139.65736439 -2.7D-06  0.00018  0.00007  0.00110  0.00254   1105.8
         Total DFT energy =     -139.657364509115

 Vector   63  Occ=0.000000D+00  E= 2.986846D+00  Symmetry=a"

 Vector   64  Occ=0.000000D+00  E= 2.987035D+00  Symmetry=a'

 Vector   65  Occ=0.000000D+00  E= 3.374641D+00  Symmetry=a'

 Vector   66  Occ=0.000000D+00  E= 3.374669D+00  Symmetry=a"

 Vector   67  Occ=0.000000D+00  E= 3.458899D+00  Symmetry=a'

 Vector   68  Occ=0.000000D+00  E= 3.458984D+00  Symmetry=a"

 Vector   69  Occ=0.000000D+00  E= 3.813602D+00  Symmetry=a'

 Vector   70  Occ=0.000000D+00  E= 5.329517D+00  Symmetry=a'

 Vector   71  Occ=0.000000D+00  E= 7.305601D+00  Symmetry=a'

         Total DFT energy =   -139.657364509115
@    6    -139.65736451 -1.2D-07  0.00001  0.00001  0.00029  0.00063   1182.7
@    6    -139.65736451 -1.2D-07  0.00001  0.00001  0.00029  0.00063   1182.7

 Output coordinates in angstroms (scale by  1.889725989 to convert to a.u.)

  No.       Tag          Charge          X              Y              Z
 ---- ---------------- ---------- -------------- -------------- --------------
    1 C                    6.0000     0.04611091     0.46774228     0.00000000
    2 H                    1.0000     1.09919531     0.77837981     0.00000000
    3 H                    1.0000    -0.46535592     0.82373886     0.90394640
    4 H                    1.0000    -0.46535592     0.82373886    -0.90394640
    5 F                    9.0000     0.00507831    -0.93864613     0.00000000

         Total DFT energy =     -139.657364509115

                       DFT Final Molecular Orbital Analysis
                       ------------------------------------

 Vector    1  Occ=2.000000D+00  E=-2.470508D+01  Symmetry=a'

 Vector    2  Occ=2.000000D+00  E=-1.026826D+01  Symmetry=a'

 Vector    3  Occ=2.000000D+00  E=-1.179845D+00  Symmetry=a'

 Vector    4  Occ=2.000000D+00  E=-6.950803D-01  Symmetry=a'

 Vector    5  Occ=2.000000D+00  E=-4.963983D-01  Symmetry=a'

 Vector    6  Occ=2.000000D+00  E=-4.868019D-01  Symmetry=a'

 Vector    7  Occ=2.000000D+00  E=-4.867719D-01  Symmetry=a"

 Vector    8  Occ=2.000000D+00  E=-3.585614D-01  Symmetry=a'

 Vector    9  Occ=2.000000D+00  E=-3.585287D-01  Symmetry=a"

 Vector   10  Occ=0.000000D+00  E= 2.090111D-02  Symmetry=a'

 Vector   11  Occ=0.000000D+00  E= 4.818007D-02  Symmetry=a'

 Vector   12  Occ=0.000000D+00  E= 9.963753D-02  Symmetry=a'

 Vector   13  Occ=0.000000D+00  E= 9.983660D-02  Symmetry=a"

 Vector   14  Occ=0.000000D+00  E= 1.250086D-01  Symmetry=a'

 Vector   15  Occ=0.000000D+00  E= 1.466085D-01  Symmetry=a"

 Vector   16  Occ=0.000000D+00  E= 1.469129D-01  Symmetry=a'

 Vector   17  Occ=0.000000D+00  E= 1.738978D-01  Symmetry=a"

 Vector   18  Occ=0.000000D+00  E= 1.739375D-01  Symmetry=a'

 Vector   19  Occ=0.000000D+00  E= 2.270839D-01  Symmetry=a'

 Vector   20  Occ=0.000000D+00  E= 2.466809D-01  Symmetry=a'

 Vector   21  Occ=0.000000D+00  E= 3.000940D-01  Symmetry=a'

 Vector   22  Occ=0.000000D+00  E= 3.002272D-01  Symmetry=a"

 Vector   23  Occ=0.000000D+00  E= 3.034838D-01  Symmetry=a'

 Vector   24  Occ=0.000000D+00  E= 3.496757D-01  Symmetry=a"

 Vector   25  Occ=0.000000D+00  E= 3.602240D-01  Symmetry=a'

 Vector   26  Occ=0.000000D+00  E= 3.604126D-01  Symmetry=a"

 Vector   27  Occ=0.000000D+00  E= 3.790642D-01  Symmetry=a'

 Vector   28  Occ=0.000000D+00  E= 4.068706D-01  Symmetry=a"

 Vector   29  Occ=0.000000D+00  E= 4.068801D-01  Symmetry=a'

 Vector   30  Occ=0.000000D+00  E= 4.373881D-01  Symmetry=a'

 Vector   31  Occ=0.000000D+00  E= 5.030807D-01  Symmetry=a'

 Vector   32  Occ=0.000000D+00  E= 5.032736D-01  Symmetry=a"

 Vector   33  Occ=0.000000D+00  E= 5.092596D-01  Symmetry=a'

 Vector   34  Occ=0.000000D+00  E= 6.221051D-01  Symmetry=a'

 Vector   35  Occ=0.000000D+00  E= 6.708999D-01  Symmetry=a'

 Vector   36  Occ=0.000000D+00  E= 6.711191D-01  Symmetry=a"

 Vector   37  Occ=0.000000D+00  E= 7.074032D-01  Symmetry=a'

 Vector   38  Occ=0.000000D+00  E= 7.360844D-01  Symmetry=a'

 Vector   39  Occ=0.000000D+00  E= 7.360926D-01  Symmetry=a"

 Vector   40  Occ=0.000000D+00  E= 9.136649D-01  Symmetry=a"

 Vector   41  Occ=0.000000D+00  E= 9.137900D-01  Symmetry=a'

 Vector   42  Occ=0.000000D+00  E= 9.498504D-01  Symmetry=a'

 Vector   43  Occ=0.000000D+00  E= 9.590928D-01  Symmetry=a'

 Vector   44  Occ=0.000000D+00  E= 9.591802D-01  Symmetry=a"

 Vector   45  Occ=0.000000D+00  E= 9.880341D-01  Symmetry=a'

 Vector   46  Occ=0.000000D+00  E= 1.258296D+00  Symmetry=a'

 Vector   47  Occ=0.000000D+00  E= 1.512197D+00  Symmetry=a'

 Vector   48  Occ=0.000000D+00  E= 1.512455D+00  Symmetry=a"

 Vector   49  Occ=0.000000D+00  E= 1.621916D+00  Symmetry=a'

 Vector   50  Occ=0.000000D+00  E= 1.622040D+00  Symmetry=a"

 Vector   51  Occ=0.000000D+00  E= 1.638790D+00  Symmetry=a"

 Vector   52  Occ=0.000000D+00  E= 1.886835D+00  Symmetry=a'

 Vector   53  Occ=0.000000D+00  E= 1.890435D+00  Symmetry=a'

 Vector   54  Occ=0.000000D+00  E= 1.890572D+00  Symmetry=a"

 Vector   55  Occ=0.000000D+00  E= 2.040825D+00  Symmetry=a'

 Vector   56  Occ=0.000000D+00  E= 2.102611D+00  Symmetry=a"

 Vector   57  Occ=0.000000D+00  E= 2.102656D+00  Symmetry=a'

 Vector   58  Occ=0.000000D+00  E= 2.198856D+00  Symmetry=a'

 Vector   59  Occ=0.000000D+00  E= 2.259432D+00  Symmetry=a'

 Vector   60  Occ=0.000000D+00  E= 2.483334D+00  Symmetry=a'

 Vector   61  Occ=0.000000D+00  E= 2.483572D+00  Symmetry=a"

 Vector   62  Occ=0.000000D+00  E= 2.736396D+00  Symmetry=a'

 Vector   63  Occ=0.000000D+00  E= 2.986846D+00  Symmetry=a"

 Vector   64  Occ=0.000000D+00  E= 2.987035D+00  Symmetry=a'

 Vector   65  Occ=0.000000D+00  E= 3.374641D+00  Symmetry=a'

 Vector   66  Occ=0.000000D+00  E= 3.374669D+00  Symmetry=a"

 Vector   67  Occ=0.000000D+00  E= 3.458899D+00  Symmetry=a'

 Vector   68  Occ=0.000000D+00  E= 3.458984D+00  Symmetry=a"

 Vector   69  Occ=0.000000D+00  E= 3.813602D+00  Symmetry=a'

 Vector   70  Occ=0.000000D+00  E= 5.329517D+00  Symmetry=a'

 Vector   71  Occ=0.000000D+00  E= 7.305601D+00  Symmetry=a'

     Multipole analysis of the density
     ---------------------------------

     L   x y z        total         alpha         beta         nuclear
     -   - - -        -----         -----         ----         -------
     0   0 0 0     -0.000000     -9.000000     -9.000000     18.000000

     1   1 0 0      0.026150     -0.450714     -0.450714      0.927579
     1   0 1 0      0.951338      3.513880      3.513880     -6.076421
     1   0 0 1     -0.000000     -0.000000     -0.000000      0.000000

     2   2 0 0     -8.848914     -7.378320     -7.378320      5.907726
     2   1 1 0      0.024127     -0.301182     -0.301182      0.626491
     2   1 0 1     -0.000000     -0.000000     -0.000000      0.000000
     2   0 2 0    -10.089239    -25.051815    -25.051815     40.014392
     2   0 1 1      0.000000      0.000000      0.000000      0.000000

         Total DFT energy =     -139.657334234618
         Total DFT energy =     -139.657334727531
         Total DFT energy =     -139.657344350841
         Total DFT energy =     -139.657343713583
         Total DFT energy =     -139.657334458286
         Total DFT energy =     -139.657334431276
         Total DFT energy =     -139.657348323247
         Total DFT energy =     -139.657348336393
         Total DFT energy =     -139.657360761232
         Total DFT energy =     -139.657360220602
         Total DFT energy =     -139.657362316075
         Total DFT energy =     -139.657362288920
         Total DFT energy =     -139.657358944283
         Total DFT energy =     -139.657358999134
         Total DFT energy =     -139.657360012218
         Total DFT energy =     -139.657360305488
         Total DFT energy =     -139.657351982486
         Total DFT energy =     -139.657351964033
         Total DFT energy =     -139.657362587621
         Total DFT energy =     -139.657362021881
         Total DFT energy =     -139.657348144150
         Total DFT energy =     -139.657348760388
         Total DFT energy =     -139.657362304995
         Total DFT energy =     -139.657362331308
 Zero-Point correction to Energy  =   24.343 kcal/mol  (  0.038793 au)
 Thermal correction to Energy     =   26.178 kcal/mol  (  0.041718 au)
 Thermal correction to Enthalpy   =   26.771 kcal/mol  (  0.042662 au)
 Total Entropy                    =   55.466 cal/mol-K
   - Translational                =   36.488 cal/mol-K (mol. weight =  34.0219)
   - Rotational                   =   18.745 cal/mol-K (symmetry #  =        1)
   - Vibrational                  =    0.233 cal/mol-K
   - Translational                  =    2.979 cal/mol-K
   - Rotational                     =    2.979 cal/mol-K
   - Vibrational                    =    1.101 cal/mol-K
 P.Frequency       -0.00       -0.00       -0.00        0.00        0.00        0.00
 P.Frequency      990.50     1178.16     1179.32     1438.99     1441.73     1443.71
 P.Frequency     3051.14     3155.85     3156.92

 Normal Eigenvalue ||           Projected Infra Red Intensities
  Mode   [cm**-1]  || [atomic units] [(debye/angs)**2] [(KM/mol)] [arbitrary]
 ------ ---------- || -------------- ----------------- ---------- -----------
    1       -0.000 ||    0.002495           0.058         2.432       1.207
    2       -0.000 ||    0.006201           0.143         6.045       3.001
    3       -0.000 ||    0.005073           0.117         4.946       2.455
    4        0.000 ||    0.004913           0.113         4.790       2.377
    5        0.000 ||    0.000011           0.000         0.011       0.005
    6        0.000 ||    0.004126           0.095         4.022       1.996
    7      990.497 ||    0.178991           4.129       174.489      86.607
    8     1178.165 ||    0.001974           0.046         1.925       0.955
    9     1179.316 ||    0.001825           0.042         1.779       0.883
   10     1438.986 ||    0.014472           0.334        14.108       7.002
   11     1441.727 ||    0.013338           0.308        13.003       6.454
   12     1443.714 ||    0.002717           0.063         2.649       1.315
   13     3051.137 ||    0.031185           0.719        30.401      15.089
   14     3155.846 ||    0.021300           0.491        20.765      10.307
   15     3156.924 ||    0.021383           0.493        20.845      10.346
 ----------------------------------------------------------------------------

 Total times  cpu:     3798.4s     wall:     1719.2s
