============================== echo of input deck ==============================
start Cl_opt_freq
title "Cl- water opt+freq"
memory total 1000 mb
echo

charge -1
geometry units angstrom
 Cl 0 0 0
end

basis
    * library def2-svpd
end

dft
  xc b3lyp
  mult 1
  grid xfine
  iterations 200
end

cosmo
 dielec 78.4
 lineq  0
end

task dft energy

#nwchem ~/СH3Cl+F=CH3F+Cl/inputs/water_env/Cl_opt_freq.nw > ~/СH3Cl+F=CH3F+Cl/outputs/water_env/Cl_opt_freq.out
#grep -i "Total DFT energy" "$HOME/СH3Cl+F=CH3F+Cl/outputs/water_env/Cl_opt_freq.out"
================================================================================

 Output coordinates in angstroms (scale by  1.889725989 to convert to a.u.)

  No.       Tag          Charge          X              Y              Z
 ---- ---------------- ---------- -------------- -------------- --------------
    1 Cl                  17.0000     0.00000000     0.00000000     0.00000000

         Total DFT energy =     -460.274652550907

                       DFT Final Molecular Orbital Analysis
                       ------------------------------------

 Vector    1  Occ=2.000000D+00  E=-1.014509D+02

 Vector    2  Occ=2.000000D+00  E=-9.381839D+00

 Vector    3  Occ=2.000000D+00  E=-7.145603D+00

 Vector    4  Occ=2.000000D+00  E=-7.145603D+00

 Vector    5  Occ=2.000000D+00  E=-7.145603D+00

 Vector    6  Occ=2.000000D+00  E=-7.166950D-01

 Vector    7  Occ=2.000000D+00  E=-2.660496D-01

 Vector    8  Occ=2.000000D+00  E=-2.660496D-01

 Vector    9  Occ=2.000000D+00  E=-2.660496D-01

 Vector   10  Occ=0.000000D+00  E= 8.573170D-03

 Vector   11  Occ=0.000000D+00  E= 8.221306D-02

 Vector   12  Occ=0.000000D+00  E= 8.221306D-02

 Vector   13  Occ=0.000000D+00  E= 8.221306D-02

 Vector   14  Occ=0.000000D+00  E= 2.161157D-01

 Vector   15  Occ=0.000000D+00  E= 2.161157D-01

 Vector   16  Occ=0.000000D+00  E= 2.186540D-01

 Vector   17  Occ=0.000000D+00  E= 2.186540D-01

 Vector   18  Occ=0.000000D+00  E= 2.186540D-01

 Vector   19  Occ=0.000000D+00  E= 2.954716D-01

 Vector   20  Occ=0.000000D+00  E= 1.005852D+00

 Vector   21  Occ=0.000000D+00  E= 1.005852D+00

 Vector   22  Occ=0.000000D+00  E= 1.006527D+00

 Vector   23  Occ=0.000000D+00  E= 1.006527D+00

 Vector   24  Occ=0.000000D+00  E= 1.006527D+00

 Vector   25  Occ=0.000000D+00  E= 1.052160D+00

 Vector   26  Occ=0.000000D+00  E= 1.052160D+00

 Vector   27  Occ=0.000000D+00  E= 1.052160D+00

 Vector   28  Occ=0.000000D+00  E= 1.069256D+00

 Vector   29  Occ=0.000000D+00  E= 3.960842D+00

 Total times  cpu:       37.4s     wall:       18.7s
