============================== echo of input deck ==============================
start Sn2_saddle
title "СH3Cl+F=CH3F+Cl water saddle+freq"
memory total 1500 mb
echo

charge -1
geometry units angstrom
  C   0.000   0.000   0.000
  H   0.000   1.080   0.000
  H   1.020  -0.360   0.000
  H  -1.020  -0.360   0.000
  F   0.000   0.000  -2.00
  Cl  0.000   0.000   2.20
end

basis
    * library def2-svpd
end

dft
  xc b3lyp
  mult 1
  grid xfine
  iterations 200
end

cosmo
 dielec 78.4
 lineq  0
end

task dft saddle
task dft freq

#nwchem ~/СH3Cl+F=CH3F+Cl/inputs/water_env/TS_via_saddle_freq.nw > ~/СH3Cl+F=CH3F+Cl/outputs/water_env/TS_via_saddle_freq.out
#grep -i "Total DFT energy" "$HOME/СH3Cl+F=CH3F+Cl/outputs/water_env/TS_via_saddle_freq.out"
================================================================================

         Total DFT energy =     -599.874399965025
@ Step       Energy      Delta E   Gmax     Grms     Xrms     Xmax   Walltime
@ ---- ---------------- -------- -------- -------- -------- -------- --------
@    0    -599.87439997  0.0D+00  0.01537  0.00515  0.00000  0.00000    153.8
         Total DFT energy =     -599.873847043607
@    1    -599.87384704  5.5D-04  0.01570  0.00548  0.00394  0.00804    354.4
         Total DFT energy =     -599.875739858791
@    2    -599.87573986 -1.9D-03  0.01476  0.00414  0.02565  0.04573    512.5
         Total DFT energy =     -599.877830681192
@    3    -599.87783068 -2.1D-03  0.01293  0.00350  0.01595  0.03577    699.3
         Total DFT energy =     -599.879534769327
@    4    -599.87953477 -1.7D-03  0.01082  0.00295  0.01639  0.02779    905.6
         Total DFT energy =     -599.880948712171
@    5    -599.88094871 -1.4D-03  0.00866  0.00237  0.01561  0.02827   1018.7
         Total DFT energy =     -599.882077450330
@    6    -599.88207745 -1.1D-03  0.00639  0.00177  0.02141  0.05267   1196.9
         Total DFT energy =     -599.882880119457
@    7    -599.88288012 -8.0D-04  0.00412  0.00126  0.02011  0.03971   1442.3
         Total DFT energy =     -599.883451044022
@    8    -599.88345104 -5.7D-04  0.00172  0.00067  0.02325  0.04902   1646.6
         Total DFT energy =     -599.883717521788
@    9    -599.88371752 -2.7D-04  0.00043  0.00024  0.02189  0.04967   1824.0
         Total DFT energy =     -599.883769843012
@   10    -599.88376984 -5.2D-05  0.00019  0.00007  0.01494  0.03645   2011.3
         Total DFT energy =     -599.883770663598
@   11    -599.88377066 -8.2D-07  0.00002  0.00001  0.00398  0.00982   2218.1
         Total DFT energy =     -599.883770727709
@   12    -599.88377073 -6.4D-08  0.00001  0.00000  0.00038  0.00094   2377.6
@   12    -599.88377073 -6.4D-08  0.00001  0.00000  0.00038  0.00094   2377.6

 Output coordinates in angstroms (scale by  1.889725989 to convert to a.u.)

  No.       Tag          Charge          X              Y              Z
 ---- ---------------- ---------- -------------- -------------- --------------
    1 C                    6.0000     0.04602000     0.52229020     0.00000000
    2 H                    1.0000     1.12630871     0.57995915     0.00000000
    3 H                    1.0000    -0.49443987     0.58411197     0.93516081
    4 H                    1.0000    -0.49443987     0.58411197    -0.93516081
    5 F                    9.0000     0.06188802     2.55690539     0.00000000
    6 Cl                  17.0000     0.05006355    -1.70139041     0.00000000

         Total DFT energy =     -599.883770727713

                       DFT Final Molecular Orbital Analysis
                       ------------------------------------

 Vector    1  Occ=2.000000D+00  E=-1.014882D+02  Symmetry=a'

 Vector   21  Occ=0.000000D+00  E= 5.902599D-02  Symmetry=a'

 Vector   22  Occ=0.000000D+00  E= 7.472473D-02  Symmetry=a'

 Vector   23  Occ=0.000000D+00  E= 7.483174D-02  Symmetry=a"

 Vector   24  Occ=0.000000D+00  E= 7.596172D-02  Symmetry=a'

 Vector   25  Occ=0.000000D+00  E= 1.180368D-01  Symmetry=a'

 Vector   26  Occ=0.000000D+00  E= 1.189461D-01  Symmetry=a"

 Vector   27  Occ=0.000000D+00  E= 1.370776D-01  Symmetry=a'

 Vector   28  Occ=0.000000D+00  E= 1.388913D-01  Symmetry=a"

 Vector   29  Occ=0.000000D+00  E= 1.391501D-01  Symmetry=a'

 Vector   30  Occ=0.000000D+00  E= 1.974516D-01  Symmetry=a"

 Vector   31  Occ=0.000000D+00  E= 1.975712D-01  Symmetry=a'

 Vector   32  Occ=0.000000D+00  E= 2.333394D-01  Symmetry=a'

 Vector   33  Occ=0.000000D+00  E= 2.359736D-01  Symmetry=a'

 Vector   34  Occ=0.000000D+00  E= 2.382316D-01  Symmetry=a"

 Vector   35  Occ=0.000000D+00  E= 2.580528D-01  Symmetry=a'

 Vector   36  Occ=0.000000D+00  E= 2.788713D-01  Symmetry=a'

 Vector   37  Occ=0.000000D+00  E= 2.794150D-01  Symmetry=a"

 Vector   38  Occ=0.000000D+00  E= 3.038561D-01  Symmetry=a'

 Vector   39  Occ=0.000000D+00  E= 3.377690D-01  Symmetry=a'

 Vector   40  Occ=0.000000D+00  E= 3.449911D-01  Symmetry=a"

 Vector   41  Occ=0.000000D+00  E= 3.677500D-01  Symmetry=a'

 Vector   42  Occ=0.000000D+00  E= 3.680798D-01  Symmetry=a"

 Vector   43  Occ=0.000000D+00  E= 3.781668D-01  Symmetry=a'

 Vector   44  Occ=0.000000D+00  E= 4.054827D-01  Symmetry=a'

 Vector   45  Occ=0.000000D+00  E= 4.058248D-01  Symmetry=a"

 Vector   46  Occ=0.000000D+00  E= 4.252625D-01  Symmetry=a'

 Vector   47  Occ=0.000000D+00  E= 4.467965D-01  Symmetry=a'

 Vector   48  Occ=0.000000D+00  E= 4.479109D-01  Symmetry=a"

 Vector   49  Occ=0.000000D+00  E= 4.680243D-01  Symmetry=a'

 Vector   50  Occ=0.000000D+00  E= 4.680710D-01  Symmetry=a"

 Vector   51  Occ=0.000000D+00  E= 5.137137D-01  Symmetry=a'

 Vector   52  Occ=0.000000D+00  E= 6.203974D-01  Symmetry=a'

 Vector   53  Occ=0.000000D+00  E= 6.819492D-01  Symmetry=a'

 Vector   54  Occ=0.000000D+00  E= 6.981692D-01  Symmetry=a'

 Vector   55  Occ=0.000000D+00  E= 6.993852D-01  Symmetry=a"

 Vector   56  Occ=0.000000D+00  E= 7.770795D-01  Symmetry=a"

 Vector   57  Occ=0.000000D+00  E= 7.778452D-01  Symmetry=a'

 Vector   58  Occ=0.000000D+00  E= 7.969439D-01  Symmetry=a'

 Vector   59  Occ=0.000000D+00  E= 8.982505D-01  Symmetry=a'

 Vector   60  Occ=0.000000D+00  E= 8.983840D-01  Symmetry=a"

 Vector   61  Occ=0.000000D+00  E= 9.269232D-01  Symmetry=a'

 Vector   62  Occ=0.000000D+00  E= 9.914676D-01  Symmetry=a'

 Vector   63  Occ=0.000000D+00  E= 9.930598D-01  Symmetry=a"

 Vector   64  Occ=0.000000D+00  E= 1.006696D+00  Symmetry=a'

 Vector   65  Occ=0.000000D+00  E= 1.008108D+00  Symmetry=a"

 Vector   66  Occ=0.000000D+00  E= 1.054855D+00  Symmetry=a'

 Vector   67  Occ=0.000000D+00  E= 1.090246D+00  Symmetry=a'

 Vector   68  Occ=0.000000D+00  E= 1.122680D+00  Symmetry=a"

 Vector   69  Occ=0.000000D+00  E= 1.123401D+00  Symmetry=a'

 Vector   70  Occ=0.000000D+00  E= 1.176622D+00  Symmetry=a"

 Vector   71  Occ=0.000000D+00  E= 1.177455D+00  Symmetry=a'

 Vector   72  Occ=0.000000D+00  E= 1.179836D+00  Symmetry=a'

 Vector   73  Occ=0.000000D+00  E= 1.293328D+00  Symmetry=a'

 Vector   74  Occ=0.000000D+00  E= 1.487586D+00  Symmetry=a"

 Vector   75  Occ=0.000000D+00  E= 1.489083D+00  Symmetry=a'

 Vector   76  Occ=0.000000D+00  E= 1.518121D+00  Symmetry=a'

 Vector   77  Occ=0.000000D+00  E= 1.522756D+00  Symmetry=a"

 Vector   78  Occ=0.000000D+00  E= 1.529555D+00  Symmetry=a'

 Vector   79  Occ=0.000000D+00  E= 1.608128D+00  Symmetry=a"

 Vector   80  Occ=0.000000D+00  E= 1.790960D+00  Symmetry=a'

 Vector   81  Occ=0.000000D+00  E= 1.833173D+00  Symmetry=a"

 Vector   82  Occ=0.000000D+00  E= 1.833871D+00  Symmetry=a'

 Vector   83  Occ=0.000000D+00  E= 2.086243D+00  Symmetry=a'

 Vector   84  Occ=0.000000D+00  E= 2.128485D+00  Symmetry=a'

 Vector   85  Occ=0.000000D+00  E= 2.251892D+00  Symmetry=a"

 Vector   86  Occ=0.000000D+00  E= 2.252310D+00  Symmetry=a'

 Vector   87  Occ=0.000000D+00  E= 2.356721D+00  Symmetry=a"

 Vector   88  Occ=0.000000D+00  E= 2.357428D+00  Symmetry=a'

 Vector   89  Occ=0.000000D+00  E= 2.427295D+00  Symmetry=a'

 Vector   90  Occ=0.000000D+00  E= 2.958350D+00  Symmetry=a'

 Vector   91  Occ=0.000000D+00  E= 2.999339D+00  Symmetry=a'

 Vector   92  Occ=0.000000D+00  E= 3.000388D+00  Symmetry=a"

 Vector   93  Occ=0.000000D+00  E= 3.444815D+00  Symmetry=a'

 Vector   94  Occ=0.000000D+00  E= 3.445088D+00  Symmetry=a"

 Vector   95  Occ=0.000000D+00  E= 3.503140D+00  Symmetry=a"

 Vector   96  Occ=0.000000D+00  E= 3.503488D+00  Symmetry=a'

 Vector   97  Occ=0.000000D+00  E= 3.562134D+00  Symmetry=a'

 Vector   98  Occ=0.000000D+00  E= 3.989874D+00  Symmetry=a'

 Vector   99  Occ=0.000000D+00  E= 5.251440D+00  Symmetry=a'

 Vector  100  Occ=0.000000D+00  E= 7.396946D+00  Symmetry=a'

     Multipole analysis of the density
     ---------------------------------

     L   x y z        total         alpha         beta         nuclear
     -   - - -        -----         -----         ----         -------
     0   0 0 0     -1.000000    -18.000000    -18.000000     35.000000

     1   1 0 0     -0.124703     -1.783534     -1.783534      3.442366
     1   0 1 0     -1.294678      0.325458      0.325458     -1.945594
     1   0 0 1      0.000000      0.000000      0.000000      0.000000

     2   2 0 0    -20.877700    -13.737262    -13.737262      6.596824
     2   1 1 0     -0.238474     -0.469143     -0.469143      0.699813
     2   1 0 1      0.000000      0.000000      0.000000      0.000000
     2   0 2 0    -47.189128   -221.263211   -221.263211    395.337295
     2   0 1 1      0.000000      0.000000      0.000000      0.000000

         Total DFT energy =     -599.883736403150
         Total DFT energy =     -599.883736596985
         Total DFT energy =     -599.883774763116
         Total DFT energy =     -599.883774514035
         Total DFT energy =     -599.883736582003
         Total DFT energy =     -599.883736549276
         Total DFT energy =     -599.883751813845
         Total DFT energy =     -599.883751264505
         Total DFT energy =     -599.883768302016
         Total DFT energy =     -599.883769102051
         Total DFT energy =     -599.883768678039
         Total DFT energy =     -599.883768673091
         Total DFT energy =     -599.883764400740
         Total DFT energy =     -599.883764458557
         Total DFT energy =     -599.883769049619
         Total DFT energy =     -599.883768525365
         Total DFT energy =     -599.883755656971
         Total DFT energy =     -599.883756005742
         Total DFT energy =     -599.883770998680
         Total DFT energy =     -599.883769543427
         Total DFT energy =     -599.883769488998
         Total DFT energy =     -599.883769629703
         Total DFT energy =     -599.883770278430
         Total DFT energy =     -599.883770288268
         Total DFT energy =     -599.883769446063
         Total DFT energy =     -599.883771196199
         Total DFT energy =     -599.883768801227
         Total DFT energy =     -599.883769097253
         Total DFT energy =     -599.883770347956
         Total DFT energy =     -599.883770337165
 Zero-Point correction to Energy  =   23.483 kcal/mol  (  0.037423 au)
 Thermal correction to Energy     =   26.281 kcal/mol  (  0.041881 au)
 Thermal correction to Enthalpy   =   26.873 kcal/mol  (  0.042825 au)
 Total Entropy                    =   67.986 cal/mol-K
   - Translational                =   38.594 cal/mol-K (mol. weight =  68.9907)
   - Rotational                   =   23.658 cal/mol-K (symmetry #  =        1)
   - Vibrational                  =    5.734 cal/mol-K
   - Translational                  =    2.979 cal/mol-K
   - Rotational                     =    2.979 cal/mol-K
   - Vibrational                    =    6.662 cal/mol-K
 P.Frequency     -492.96       -0.00       -0.00       -0.00        0.00        0.00
 P.Frequency        0.00      230.43      230.69      258.08      956.17      968.43
 P.Frequency     1146.63     1356.59     1360.00     3170.72     3378.49     3378.54

 Normal Eigenvalue ||           Projected Infra Red Intensities
  Mode   [cm**-1]  || [atomic units] [(debye/angs)**2] [(KM/mol)] [arbitrary]
 ------ ---------- || -------------- ----------------- ---------- -----------
    1     -492.961 ||    1.738929          40.118      1695.194     158.069
    2       -0.000 ||    0.014499           0.335        14.135       1.318
    3       -0.000 ||    0.013390           0.309        13.053       1.217
    4       -0.000 ||    0.003336           0.077         3.252       0.303
    5        0.000 ||    0.002562           0.059         2.497       0.233
    6        0.000 ||    0.012521           0.289        12.206       1.138
    7        0.000 ||    0.001690           0.039         1.648       0.154
    8      230.426 ||    0.036286           0.837        35.374       3.298
    9      230.689 ||    0.035716           0.824        34.818       3.247
   10      258.084 ||    0.007130           0.164         6.951       0.648
   11      956.168 ||    0.001122           0.026         1.094       0.102
   12      968.434 ||    0.001215           0.028         1.184       0.110
   13     1146.629 ||    0.079657           1.838        77.653       7.241
   14     1356.587 ||    0.012533           0.289        12.218       1.139
   15     1360.002 ||    0.009894           0.228         9.645       0.899
   16     3170.720 ||    0.000385           0.009         0.375       0.035
   17     3378.491 ||    0.004234           0.098         4.128       0.385
   18     3378.537 ||    0.005100           0.118         4.971       0.464
 ----------------------------------------------------------------------------

 Total times  cpu:    17419.4s     wall:     8636.0s
