============================== echo of input deck ==============================
start CH3Cl_opt_freq
title "CH3Cl gas opt+freq"
memory total 2000 mb
echo
scratch_dir /mnt/c/Users/ddizy/Desktop/qcproject/reactions/sn2_methylchloride_f_attack/runs_nwchem/gas_phase/scratch
permanent_dir /mnt/c/Users/ddizy/Desktop/qcproject/reactions/sn2_methylchloride_f_attack/runs_nwchem/gas_phase/perm

charge 0
geometry units angstrom
 C   0.000   0.000   0.000
 H   0.000   1.080   0.000
 H   1.020  -0.360   0.000
 H  -1.020  -0.360   0.000
 Cl  0.000   0.000   1.78
end

basis
    * library def2-svpd
end

dft
  xc b3lyp
  grid xfine
  iterations 200
end
task dft optimize
task dft freq

#nwchem ~/СH3Cl+F=CH3F+Cl/inputs/gas_env/CH3Cl_opt_freq.nw > ~/СH3Cl+F=CH3F+Cl/outputs/gas_env/CH3Cl_opt_freq.out
#grep -i "Total DFT energy" "$HOME/СH3Cl+F=CH3F+Cl/outputs/gas_env/CH3Cl_opt_freq.out"
================================================================================

         Total DFT energy =     -499.919653090861
@ Step       Energy      Delta E   Gmax     Grms     Xrms     Xmax   Walltime
@ ---- ---------------- -------- -------- -------- -------- -------- --------
@    0    -499.91965309  0.0D+00  0.07331  0.03380  0.00000  0.00000     10.7
         Total DFT energy =     -499.955196000854
         Total DFT energy =     -499.957857369215
@    1    -499.95785737 -3.8D-02  0.01611  0.00886  0.14280  0.39945     27.9
         Total DFT energy =     -499.965507259032
         Total DFT energy =     -499.967532428155
@    2    -499.96753243 -9.7D-03  0.02276  0.00757  0.09599  0.18433     49.4
         Total DFT energy =     -499.968948579963
         Total DFT energy =     -499.969155425648
@    3    -499.96915543 -1.6D-03  0.00167  0.00104  0.03073  0.09268     64.2
         Total DFT energy =     -499.969220473917
         Total DFT energy =   -499.969220473917
@    4    -499.96922047 -6.5D-05  0.00042  0.00020  0.00785  0.01077     73.9
         Total DFT energy =     -499.969222639295
         Total DFT energy =   -499.969222639295
@    5    -499.96922264 -2.2D-06  0.00006  0.00003  0.00158  0.00368     87.2
         Total DFT energy =     -499.969222685820

 Vector   71  Occ=0.000000D+00  E= 2.751495D+00  Symmetry=a'

 Vector   72  Occ=0.000000D+00  E= 2.986238D+00  Symmetry=a'

 Vector   73  Occ=0.000000D+00  E= 2.986265D+00  Symmetry=a"

 Vector   74  Occ=0.000000D+00  E= 3.952751D+00  Symmetry=a'

 Vector   75  Occ=0.000000D+00  E= 5.210632D+00  Symmetry=a'

         Total DFT energy =   -499.969222685820
@    6    -499.96922269 -4.7D-08  0.00001  0.00001  0.00027  0.00074     96.0
@    6    -499.96922269 -4.7D-08  0.00001  0.00001  0.00027  0.00074     96.0

 Output coordinates in angstroms (scale by  1.889725989 to convert to a.u.)

  No.       Tag          Charge          X              Y              Z
 ---- ---------------- ---------- -------------- -------------- --------------
    1 C                    6.0000     0.05094896     0.96206975     0.00000000
    2 H                    1.0000     1.09992800     1.27774459     0.00000000
    3 H                    1.0000    -0.45926575     1.32084862     0.90052373
    4 H                    1.0000    -0.45926575     1.32084862    -0.90052373
    5 Cl                  17.0000     0.00114320    -0.83856526     0.00000000

         Total DFT energy =     -499.969222672333

                       DFT Final Molecular Orbital Analysis
                       ------------------------------------

 Vector    1  Occ=2.000000D+00  E=-1.015375D+02

 Vector    2  Occ=2.000000D+00  E=-1.025938D+01

 Vector    3  Occ=2.000000D+00  E=-9.468192D+00

 Vector    4  Occ=2.000000D+00  E=-7.238522D+00

 Vector    5  Occ=2.000000D+00  E=-7.228468D+00

 Vector    6  Occ=2.000000D+00  E=-7.228468D+00

 Vector    7  Occ=2.000000D+00  E=-8.541621D-01

 Vector    8  Occ=2.000000D+00  E=-6.784134D-01

 Vector    9  Occ=2.000000D+00  E=-4.551456D-01

 Vector   10  Occ=2.000000D+00  E=-4.551432D-01

 Vector   11  Occ=2.000000D+00  E=-4.198281D-01

 Vector   12  Occ=2.000000D+00  E=-3.044988D-01

 Vector   13  Occ=2.000000D+00  E=-3.044981D-01

 Vector   14  Occ=0.000000D+00  E=-3.297061D-03

 Vector   15  Occ=0.000000D+00  E= 1.548423D-02

 Vector   16  Occ=0.000000D+00  E= 6.721707D-02

 Vector   17  Occ=0.000000D+00  E= 6.721787D-02

 Vector   18  Occ=0.000000D+00  E= 8.465213D-02

 Vector   19  Occ=0.000000D+00  E= 8.884914D-02

 Vector   20  Occ=0.000000D+00  E= 1.155802D-01

 Vector   21  Occ=0.000000D+00  E= 1.155815D-01

 Vector   22  Occ=0.000000D+00  E= 1.502574D-01

 Vector   23  Occ=0.000000D+00  E= 1.502592D-01

 Vector   24  Occ=0.000000D+00  E= 2.085867D-01

 Vector   25  Occ=0.000000D+00  E= 2.127700D-01

 Vector   26  Occ=0.000000D+00  E= 2.127713D-01

 Vector   27  Occ=0.000000D+00  E= 2.583971D-01

 Vector   28  Occ=0.000000D+00  E= 2.583975D-01

 Vector   29  Occ=0.000000D+00  E= 2.858076D-01

 Vector   30  Occ=0.000000D+00  E= 3.136622D-01

 Vector   31  Occ=0.000000D+00  E= 3.355990D-01

 Vector   32  Occ=0.000000D+00  E= 3.420114D-01

 Vector   33  Occ=0.000000D+00  E= 3.420120D-01

 Vector   34  Occ=0.000000D+00  E= 3.574287D-01

 Vector   35  Occ=0.000000D+00  E= 3.787593D-01

 Vector   36  Occ=0.000000D+00  E= 3.877948D-01

 Vector   37  Occ=0.000000D+00  E= 3.877948D-01

 Vector   38  Occ=0.000000D+00  E= 4.192709D-01

 Vector   39  Occ=0.000000D+00  E= 4.377589D-01

 Vector   40  Occ=0.000000D+00  E= 4.377597D-01

 Vector   41  Occ=0.000000D+00  E= 4.717351D-01

 Vector   42  Occ=0.000000D+00  E= 4.717365D-01

 Vector   43  Occ=0.000000D+00  E= 5.186460D-01

 Vector   44  Occ=0.000000D+00  E= 8.136051D-01

 Vector   45  Occ=0.000000D+00  E= 8.136136D-01

 Vector   46  Occ=0.000000D+00  E= 8.222674D-01

 Vector   47  Occ=0.000000D+00  E= 8.478984D-01

 Vector   48  Occ=0.000000D+00  E= 8.479048D-01

 Vector   49  Occ=0.000000D+00  E= 9.297542D-01

 Vector   50  Occ=0.000000D+00  E= 9.702817D-01

 Vector   51  Occ=0.000000D+00  E= 9.702818D-01

 Vector   52  Occ=0.000000D+00  E= 9.808038D-01

 Vector   53  Occ=0.000000D+00  E= 1.093154D+00

 Vector   54  Occ=0.000000D+00  E= 1.109807D+00

 Vector   55  Occ=0.000000D+00  E= 1.109808D+00

 Vector   56  Occ=0.000000D+00  E= 1.246295D+00

 Vector   57  Occ=0.000000D+00  E= 1.246295D+00

 Vector   58  Occ=0.000000D+00  E= 1.251477D+00

 Vector   59  Occ=0.000000D+00  E= 1.513111D+00

 Vector   60  Occ=0.000000D+00  E= 1.517976D+00

 Vector   61  Occ=0.000000D+00  E= 1.517982D+00

 Vector   62  Occ=0.000000D+00  E= 1.626107D+00

 Vector   63  Occ=0.000000D+00  E= 1.827272D+00

 Vector   64  Occ=0.000000D+00  E= 1.827291D+00

 Vector   65  Occ=0.000000D+00  E= 2.000977D+00

 Vector   66  Occ=0.000000D+00  E= 2.000982D+00

 Vector   67  Occ=0.000000D+00  E= 2.073336D+00

 Vector   68  Occ=0.000000D+00  E= 2.234471D+00

 Vector   69  Occ=0.000000D+00  E= 2.464545D+00

 Vector   70  Occ=0.000000D+00  E= 2.464564D+00

 Vector   71  Occ=0.000000D+00  E= 2.751510D+00

 Vector   72  Occ=0.000000D+00  E= 2.986257D+00

 Vector   73  Occ=0.000000D+00  E= 2.986285D+00

 Vector   74  Occ=0.000000D+00  E= 3.952770D+00

 Vector   75  Occ=0.000000D+00  E= 5.210668D+00

     Multipole analysis of the density
     ---------------------------------

     L   x y z        total         alpha         beta         nuclear
     -   - - -        -----         -----         ----         -------
     0   0 0 0     -0.000000    -13.000000    -13.000000     26.000000

     1   1 0 0      0.021723     -0.467735     -0.467735      0.957193
     1   0 1 0      0.785645      4.704940      4.704940     -8.624235
     1   0 0 1      0.000000      0.000000      0.000000      0.000000

     2   2 0 0    -15.031772    -10.457173    -10.457173      5.882574
     2   1 1 0      0.060406     -0.808975     -0.808975      1.678356
     2   1 0 1     -0.000000     -0.000000     -0.000000      0.000000
     2   0 2 0    -14.156765    -47.484335    -47.484335     80.811905
     2   0 1 1     -0.000000     -0.000000     -0.000000      0.000000

 Zero-Point correction to Energy  =   23.444 kcal/mol  (  0.037360 au)
 Thermal correction to Energy     =   25.345 kcal/mol  (  0.040389 au)
 Thermal correction to Enthalpy   =   25.937 kcal/mol  (  0.041333 au)
 Total Entropy                    =   58.180 cal/mol-K
   - Translational                =   37.635 cal/mol-K (mol. weight =  49.9923)
   - Rotational                   =   20.030 cal/mol-K (symmetry #  =        1)
   - Vibrational                  =    0.516 cal/mol-K
   - Translational                  =    2.979 cal/mol-K
   - Rotational                     =    2.979 cal/mol-K
   - Vibrational                    =    1.832 cal/mol-K
 P.Frequency       -0.00       -0.00       -0.00       -0.00        0.00        0.00
 P.Frequency      718.63     1011.06     1011.06     1343.66     1447.58     1447.58
 P.Frequency     3069.59     3178.97     3179.03

 Normal Eigenvalue ||           Projected Infra Red Intensities
  Mode   [cm**-1]  || [atomic units] [(debye/angs)**2] [(KM/mol)] [arbitrary]
 ------ ---------- || -------------- ----------------- ---------- -----------
    1       -0.000 ||    0.002128           0.049         2.074       3.426
    2       -0.000 ||    0.000002           0.000         0.002       0.003
    3       -0.000 ||    0.001317           0.030         1.283       2.120
    4       -0.000 ||    0.001371           0.032         1.337       2.208
    5        0.000 ||    0.001027           0.024         1.001       1.654
    6        0.000 ||    0.003095           0.071         3.018       4.984
    7      718.632 ||    0.027486           0.634        26.795      44.252
    8     1011.058 ||    0.002514           0.058         2.450       4.047
    9     1011.060 ||    0.002514           0.058         2.451       4.048
   10     1343.657 ||    0.011390           0.263        11.103      18.337
   11     1447.580 ||    0.006933           0.160         6.759      11.162
   12     1447.583 ||    0.006932           0.160         6.757      11.160
   13     3069.586 ||    0.021270           0.491        20.735      34.243
   14     3178.970 ||    0.002595           0.060         2.530       4.178
   15     3179.027 ||    0.002595           0.060         2.530       4.179
 ----------------------------------------------------------------------------

 Total times  cpu:      537.1s     wall:      255.7s
