============================== echo of input deck ==============================
start CH3Cl_gradient
title "CH3Cl gradient"
memory total 2000 mb
echo

charge 0
geometry units angstrom
 C   0.000   0.000   0.000
 H   0.000   1.080   0.000
 H   1.020  -0.360   0.000
 H  -1.020  -0.360   0.000
 Cl  0.000   0.000   1.78
end

basis
    * library def2-svpd
end

dft
  xc b3lyp
  grid xfine
  iterations 200
end
task dft gradient
================================================================================

 Output coordinates in angstroms (scale by  1.889725989 to convert to a.u.)

  No.       Tag          Charge          X              Y              Z
 ---- ---------------- ---------- -------------- -------------- --------------
    1 C                    6.0000    -0.03034092     1.16353299     0.00000000
    2 H                    1.0000     1.04955059     1.17884072     0.00000000
    3 H                    1.0000    -0.39030476     1.15843041     1.02000000
    4 H                    1.0000    -0.39030476     1.15843041    -1.02000000
    5 Cl                  17.0000    -0.00511150    -0.61628820     0.00000000

         Total DFT energy =     -499.919653090861

                       DFT Final Molecular Orbital Analysis
                       ------------------------------------

 Vector    1  Occ=2.000000D+00  E=-1.015236D+02  Symmetry=a'

 Vector    2  Occ=2.000000D+00  E=-1.025367D+01  Symmetry=a'

 Vector    3  Occ=2.000000D+00  E=-9.457121D+00  Symmetry=a'

 Vector    4  Occ=2.000000D+00  E=-7.226999D+00  Symmetry=a'

 Vector    5  Occ=2.000000D+00  E=-7.217292D+00  Symmetry=a"

 Vector    6  Occ=2.000000D+00  E=-7.217163D+00  Symmetry=a'

 Vector    7  Occ=2.000000D+00  E=-8.753186D-01  Symmetry=a'

 Vector    8  Occ=2.000000D+00  E=-6.669476D-01  Symmetry=a'

 Vector    9  Occ=2.000000D+00  E=-5.087664D-01  Symmetry=a"

 Vector   10  Occ=2.000000D+00  E=-4.606894D-01  Symmetry=a'

 Vector   11  Occ=2.000000D+00  E=-3.862711D-01  Symmetry=a'

 Vector   12  Occ=2.000000D+00  E=-2.974201D-01  Symmetry=a"

 Vector   13  Occ=2.000000D+00  E=-2.901558D-01  Symmetry=a'

 Vector   14  Occ=0.000000D+00  E=-2.322411D-03  Symmetry=a'

 Vector   15  Occ=0.000000D+00  E= 4.135798D-03  Symmetry=a'

 Vector   16  Occ=0.000000D+00  E= 6.317239D-02  Symmetry=a"

 Vector   17  Occ=0.000000D+00  E= 6.464719D-02  Symmetry=a'

 Vector   18  Occ=0.000000D+00  E= 7.335657D-02  Symmetry=a'

 Vector   19  Occ=0.000000D+00  E= 9.149589D-02  Symmetry=a'

 Vector   20  Occ=0.000000D+00  E= 9.689807D-02  Symmetry=a'

 Vector   21  Occ=0.000000D+00  E= 1.172375D-01  Symmetry=a"

 Vector   22  Occ=0.000000D+00  E= 1.602551D-01  Symmetry=a"

 Vector   23  Occ=0.000000D+00  E= 1.713028D-01  Symmetry=a'

 Vector   24  Occ=0.000000D+00  E= 1.964568D-01  Symmetry=a'

 Vector   25  Occ=0.000000D+00  E= 2.262927D-01  Symmetry=a"

 Vector   26  Occ=0.000000D+00  E= 2.374565D-01  Symmetry=a'

 Vector   27  Occ=0.000000D+00  E= 2.640464D-01  Symmetry=a'

 Vector   28  Occ=0.000000D+00  E= 2.714470D-01  Symmetry=a"

 Vector   29  Occ=0.000000D+00  E= 2.724580D-01  Symmetry=a'

 Vector   30  Occ=0.000000D+00  E= 3.204679D-01  Symmetry=a'

 Vector   31  Occ=0.000000D+00  E= 3.219047D-01  Symmetry=a"

 Vector   32  Occ=0.000000D+00  E= 3.310287D-01  Symmetry=a'

 Vector   33  Occ=0.000000D+00  E= 3.483797D-01  Symmetry=a"

 Vector   34  Occ=0.000000D+00  E= 3.630924D-01  Symmetry=a'

 Vector   35  Occ=0.000000D+00  E= 3.666040D-01  Symmetry=a'

 Vector   36  Occ=0.000000D+00  E= 3.879150D-01  Symmetry=a'

 Vector   37  Occ=0.000000D+00  E= 3.983315D-01  Symmetry=a"

 Vector   38  Occ=0.000000D+00  E= 4.307264D-01  Symmetry=a'

 Vector   39  Occ=0.000000D+00  E= 4.364923D-01  Symmetry=a"

 Vector   40  Occ=0.000000D+00  E= 4.490790D-01  Symmetry=a'

 Vector   41  Occ=0.000000D+00  E= 4.620489D-01  Symmetry=a'

 Vector   42  Occ=0.000000D+00  E= 4.778456D-01  Symmetry=a"

 Vector   43  Occ=0.000000D+00  E= 5.000667D-01  Symmetry=a'

 Vector   44  Occ=0.000000D+00  E= 8.211907D-01  Symmetry=a"

 Vector   45  Occ=0.000000D+00  E= 8.612153D-01  Symmetry=a'

 Vector   46  Occ=0.000000D+00  E= 8.725146D-01  Symmetry=a'

 Vector   47  Occ=0.000000D+00  E= 8.969045D-01  Symmetry=a'

 Vector   48  Occ=0.000000D+00  E= 9.350457D-01  Symmetry=a"

 Vector   49  Occ=0.000000D+00  E= 9.477961D-01  Symmetry=a'

 Vector   50  Occ=0.000000D+00  E= 9.839517D-01  Symmetry=a"

 Vector   51  Occ=0.000000D+00  E= 9.853302D-01  Symmetry=a'

 Vector   52  Occ=0.000000D+00  E= 1.013614D+00  Symmetry=a'

 Vector   53  Occ=0.000000D+00  E= 1.054466D+00  Symmetry=a'

 Vector   54  Occ=0.000000D+00  E= 1.083939D+00  Symmetry=a'

 Vector   55  Occ=0.000000D+00  E= 1.195663D+00  Symmetry=a"

 Vector   56  Occ=0.000000D+00  E= 1.199626D+00  Symmetry=a'

 Vector   57  Occ=0.000000D+00  E= 1.211167D+00  Symmetry=a"

 Vector   58  Occ=0.000000D+00  E= 1.304391D+00  Symmetry=a'

 Vector   59  Occ=0.000000D+00  E= 1.431515D+00  Symmetry=a"

 Vector   60  Occ=0.000000D+00  E= 1.440236D+00  Symmetry=a'

 Vector   61  Occ=0.000000D+00  E= 1.546526D+00  Symmetry=a'

 Vector   62  Occ=0.000000D+00  E= 1.581094D+00  Symmetry=a"

 Vector   63  Occ=0.000000D+00  E= 1.811529D+00  Symmetry=a"

 Vector   64  Occ=0.000000D+00  E= 1.861652D+00  Symmetry=a'

 Vector   65  Occ=0.000000D+00  E= 1.921452D+00  Symmetry=a'

 Vector   66  Occ=0.000000D+00  E= 2.105436D+00  Symmetry=a'

 Vector   67  Occ=0.000000D+00  E= 2.185921D+00  Symmetry=a'

 Vector   68  Occ=0.000000D+00  E= 2.252752D+00  Symmetry=a'

 Vector   69  Occ=0.000000D+00  E= 2.339108D+00  Symmetry=a"

 Vector   70  Occ=0.000000D+00  E= 2.396339D+00  Symmetry=a"

 Vector   71  Occ=0.000000D+00  E= 2.859905D+00  Symmetry=a"

 Vector   72  Occ=0.000000D+00  E= 2.912665D+00  Symmetry=a'

 Vector   73  Occ=0.000000D+00  E= 3.250636D+00  Symmetry=a'

 Vector   74  Occ=0.000000D+00  E= 3.969540D+00  Symmetry=a'

 Vector   75  Occ=0.000000D+00  E= 5.262369D+00  Symmetry=a'

     Multipole analysis of the density
     ---------------------------------

     L   x y z        total         alpha         beta         nuclear
     -   - - -        -----         -----         ----         -------
     0   0 0 0      0.000000    -13.000000    -13.000000     26.000000

     1   1 0 0      0.047469      0.023734      0.023734      0.000000
     1   0 1 0      0.712622      0.356311      0.356311      0.000000
     1   0 0 1     -0.000000     -0.000000     -0.000000      0.000000

     2   2 0 0    -15.192568    -10.117812    -10.117812      5.043056
     2   1 1 0      0.097706     -0.263094     -0.263094      0.623893
     2   1 0 1     -0.000000     -0.000000     -0.000000      0.000000
     2   0 2 0    -15.081824    -40.846856    -40.846856     66.611888
     2   0 1 1     -0.000000     -0.000000     -0.000000      0.000000

 Total times  cpu:      177.4s     wall:       96.6s
