============================== echo of input deck ==============================
start CH3Cl_gradient
title "CH3Cl gradient"
memory total 2000 mb
echo

charge 0
geometry units angstrom nocenter noautosym noautoz print xyz
 C   0.000   0.000   0.000
 H   0.000   1.080   0.000
 H   1.020  -0.360   0.000
 H  -1.020  -0.360   0.000
 Cl  0.000   0.000   1.78
end

basis
    * library def2-svpd
end

dft
  xc b3lyp
  grid xfine
  iterations 200
end
task dft gradient
================================================================================

 Output coordinates in angstroms (scale by  1.889725989 to convert to a.u.)

  No.       Tag          Charge          X              Y              Z
 ---- ---------------- ---------- -------------- -------------- --------------
    1 C                    6.0000     0.00000000     0.00000000     0.00000000
    2 H                    1.0000     0.00000000     1.08000000     0.00000000
    3 H                    1.0000     1.02000000    -0.36000000     0.00000000
    4 H                    1.0000    -1.02000000    -0.36000000     0.00000000
    5 Cl                  17.0000     0.00000000     0.00000000     1.78000000

         Total DFT energy =     -499.919653140953

                       DFT Final Molecular Orbital Analysis
                       ------------------------------------

 Vector    1  Occ=2.000000D+00  E=-1.015236D+02

 Vector    2  Occ=2.000000D+00  E=-1.025367D+01

 Vector    3  Occ=2.000000D+00  E=-9.457121D+00

 Vector    4  Occ=2.000000D+00  E=-7.226999D+00

 Vector    5  Occ=2.000000D+00  E=-7.217292D+00

 Vector    6  Occ=2.000000D+00  E=-7.217163D+00

 Vector    7  Occ=2.000000D+00  E=-8.753186D-01

 Vector    8  Occ=2.000000D+00  E=-6.669476D-01

 Vector    9  Occ=2.000000D+00  E=-5.087664D-01

 Vector   10  Occ=2.000000D+00  E=-4.606894D-01

 Vector   11  Occ=2.000000D+00  E=-3.862711D-01

 Vector   12  Occ=2.000000D+00  E=-2.974201D-01

 Vector   13  Occ=2.000000D+00  E=-2.901558D-01

 Vector   14  Occ=0.000000D+00  E=-2.322398D-03

 Vector   15  Occ=0.000000D+00  E= 4.135806D-03

 Vector   16  Occ=0.000000D+00  E= 6.317240D-02

 Vector   17  Occ=0.000000D+00  E= 6.464719D-02

 Vector   18  Occ=0.000000D+00  E= 7.335658D-02

 Vector   19  Occ=0.000000D+00  E= 9.149597D-02

 Vector   20  Occ=0.000000D+00  E= 9.689807D-02

 Vector   21  Occ=0.000000D+00  E= 1.172375D-01

 Vector   22  Occ=0.000000D+00  E= 1.602551D-01

 Vector   23  Occ=0.000000D+00  E= 1.713028D-01

 Vector   24  Occ=0.000000D+00  E= 1.964568D-01

 Vector   25  Occ=0.000000D+00  E= 2.262927D-01

 Vector   26  Occ=0.000000D+00  E= 2.374565D-01

 Vector   27  Occ=0.000000D+00  E= 2.640464D-01

 Vector   28  Occ=0.000000D+00  E= 2.714470D-01

 Vector   29  Occ=0.000000D+00  E= 2.724581D-01

 Vector   30  Occ=0.000000D+00  E= 3.204679D-01

 Vector   31  Occ=0.000000D+00  E= 3.219047D-01

 Vector   32  Occ=0.000000D+00  E= 3.310287D-01

 Vector   33  Occ=0.000000D+00  E= 3.483797D-01

 Vector   34  Occ=0.000000D+00  E= 3.630925D-01

 Vector   35  Occ=0.000000D+00  E= 3.666041D-01

 Vector   36  Occ=0.000000D+00  E= 3.879150D-01

 Vector   37  Occ=0.000000D+00  E= 3.983315D-01

 Vector   38  Occ=0.000000D+00  E= 4.307264D-01

 Vector   39  Occ=0.000000D+00  E= 4.364924D-01

 Vector   40  Occ=0.000000D+00  E= 4.490791D-01

 Vector   41  Occ=0.000000D+00  E= 4.620490D-01

 Vector   42  Occ=0.000000D+00  E= 4.778456D-01

 Vector   43  Occ=0.000000D+00  E= 5.000670D-01

 Vector   44  Occ=0.000000D+00  E= 8.211907D-01

 Vector   45  Occ=0.000000D+00  E= 8.612153D-01

 Vector   46  Occ=0.000000D+00  E= 8.725146D-01

 Vector   47  Occ=0.000000D+00  E= 8.969047D-01

 Vector   48  Occ=0.000000D+00  E= 9.350458D-01

 Vector   49  Occ=0.000000D+00  E= 9.477961D-01

 Vector   50  Occ=0.000000D+00  E= 9.839516D-01

 Vector   51  Occ=0.000000D+00  E= 9.853302D-01

 Vector   52  Occ=0.000000D+00  E= 1.013614D+00

 Vector   53  Occ=0.000000D+00  E= 1.054466D+00

 Vector   54  Occ=0.000000D+00  E= 1.083939D+00

 Vector   55  Occ=0.000000D+00  E= 1.195663D+00

 Vector   56  Occ=0.000000D+00  E= 1.199626D+00

 Vector   57  Occ=0.000000D+00  E= 1.211167D+00

 Vector   58  Occ=0.000000D+00  E= 1.304391D+00

 Vector   59  Occ=0.000000D+00  E= 1.431515D+00

 Vector   60  Occ=0.000000D+00  E= 1.440236D+00

 Vector   61  Occ=0.000000D+00  E= 1.546526D+00

 Vector   62  Occ=0.000000D+00  E= 1.581094D+00

 Vector   63  Occ=0.000000D+00  E= 1.811529D+00

 Vector   64  Occ=0.000000D+00  E= 1.861652D+00

 Vector   65  Occ=0.000000D+00  E= 1.921452D+00

 Vector   66  Occ=0.000000D+00  E= 2.105436D+00

 Vector   67  Occ=0.000000D+00  E= 2.185921D+00

 Vector   68  Occ=0.000000D+00  E= 2.252752D+00

 Vector   69  Occ=0.000000D+00  E= 2.339108D+00

 Vector   70  Occ=0.000000D+00  E= 2.396339D+00

 Vector   71  Occ=0.000000D+00  E= 2.859905D+00

 Vector   72  Occ=0.000000D+00  E= 2.912665D+00

 Vector   73  Occ=0.000000D+00  E= 3.250636D+00

 Vector   74  Occ=0.000000D+00  E= 3.969540D+00

 Vector   75  Occ=0.000000D+00  E= 5.262369D+00

     Multipole analysis of the density
     ---------------------------------

     L   x y z        total         alpha         beta         nuclear
     -   - - -        -----         -----         ----         -------
     0   0 0 0     -0.000000    -13.000000    -13.000000     26.000000

     1   1 0 0     -0.000000     -0.000000     -0.000000      0.000000
     1   0 1 0      0.057564     -0.311369     -0.311369      0.680301
     1   0 0 1     -0.711878    -28.947493    -28.947493     57.183108

     2   2 0 0    -14.350446    -10.890558    -10.890558      7.430671
     2   1 1 0     -0.000000     -0.000000     -0.000000      0.000000
     2   1 0 1     -0.000000     -0.000000     -0.000000      0.000000
     2   0 2 0    -15.186764    -10.138837    -10.138837      5.090909
     2   0 1 1      0.008741      0.004371      0.004371      0.000000

 Total times  cpu:      256.6s     wall:      123.5s
