============================== echo of input deck ==============================
start cl_energy
title "Cl- gas opt+freq"
memory total 1000 mb
echo
scratch_dir /mnt/c/Users/ddizy/Desktop/qcproject/reactions/sn2_methylchloride_f_attack/runs_nwchem/gas_phase/scratch
permanent_dir /mnt/c/Users/ddizy/Desktop/qcproject/reactions/sn2_methylchloride_f_attack/runs_nwchem/gas_phase/perm

charge -1
geometry units angstrom
 Cl 0 0 0
end

basis
    * library def2-svpd
end

dft
  xc b3lyp
  mult 1
  grid xfine
  iterations 200
end
task dft energy

#nwchem ~/СH3Cl+F=CH3F+Cl/inputs/gas_env/Cl_opt_freq.nw > ~/СH3Cl+F=CH3F+Cl/outputs/gas_env/Cl_opt_freq.out
#grep -i "Total DFT energy" "$HOME/СH3Cl+F=CH3F+Cl/outputs/gas_env/Cl_opt_freq.out"
================================================================================

 Output coordinates in angstroms (scale by  1.889725989 to convert to a.u.)

  No.       Tag          Charge          X              Y              Z
 ---- ---------------- ---------- -------------- -------------- --------------
    1 Cl                  17.0000     0.00000000     0.00000000     0.00000000

         Total DFT energy =     -460.160972294191

                       DFT Final Molecular Orbital Analysis
                       ------------------------------------

 Vector    1  Occ=2.000000D+00  E=-1.012216D+02

 Vector    2  Occ=2.000000D+00  E=-9.152148D+00

 Vector    3  Occ=2.000000D+00  E=-6.915910D+00

 Vector    4  Occ=2.000000D+00  E=-6.915910D+00

 Vector    5  Occ=2.000000D+00  E=-6.915910D+00

 Vector    6  Occ=2.000000D+00  E=-4.817770D-01

 Vector    7  Occ=2.000000D+00  E=-3.021739D-02

 Vector    8  Occ=2.000000D+00  E=-3.021739D-02

 Vector    9  Occ=2.000000D+00  E=-3.021739D-02

 Vector   10  Occ=0.000000D+00  E= 1.933520D-01

 Vector   11  Occ=0.000000D+00  E= 2.724389D-01

 Vector   12  Occ=0.000000D+00  E= 2.724389D-01

 Vector   13  Occ=0.000000D+00  E= 2.724389D-01

 Vector   14  Occ=0.000000D+00  E= 4.501800D-01

 Vector   15  Occ=0.000000D+00  E= 4.501800D-01

 Vector   16  Occ=0.000000D+00  E= 4.501800D-01

 Vector   17  Occ=0.000000D+00  E= 4.501800D-01

 Vector   18  Occ=0.000000D+00  E= 4.501800D-01

 Vector   19  Occ=0.000000D+00  E= 5.000723D-01

 Vector   20  Occ=0.000000D+00  E= 1.239042D+00

 Vector   21  Occ=0.000000D+00  E= 1.239042D+00

 Vector   22  Occ=0.000000D+00  E= 1.239042D+00

 Vector   23  Occ=0.000000D+00  E= 1.239042D+00

 Vector   24  Occ=0.000000D+00  E= 1.239042D+00

 Vector   25  Occ=0.000000D+00  E= 1.283065D+00

 Vector   26  Occ=0.000000D+00  E= 1.283065D+00

 Vector   27  Occ=0.000000D+00  E= 1.283065D+00

 Vector   28  Occ=0.000000D+00  E= 1.293572D+00

 Vector   29  Occ=0.000000D+00  E= 4.191858D+00

 Total times  cpu:       15.6s     wall:       12.9s
