============================== echo of input deck ==============================
start f_energy
title "F- gas energy"
memory total 1000 mb
echo
scratch_dir /mnt/c/Users/ddizy/Desktop/qcproject/reactions/sn2_methylchloride_f_attack/runs_nwchem/gas_phase/scratch
permanent_dir /mnt/c/Users/ddizy/Desktop/qcproject/reactions/sn2_methylchloride_f_attack/runs_nwchem/gas_phase/perm

charge -1
geometry units angstrom
 F 0 0 0
end

basis
    * library def2-svpd
end

dft
  xc b3lyp
  mult 1
  grid xfine
  iterations 200
end
task dft energy

#nwchem ~/СH3Cl+F=CH3F+Cl/inputs/gas_env/F_opt_freq.nw > ~/СH3Cl+F=CH3F+Cl/outputs/gas_env/F_opt_freq.out
#grep -i "Total DFT energy" "$HOME/СH3Cl+F=CH3F+Cl/outputs/gas_env/F_opt_freq.out"
================================================================================

 Output coordinates in angstroms (scale by  1.889725989 to convert to a.u.)

  No.       Tag          Charge          X              Y              Z
 ---- ---------------- ---------- -------------- -------------- --------------
    1 F                    9.0000     0.00000000     0.00000000     0.00000000

         Total DFT energy =      -99.788700031088

                       DFT Final Molecular Orbital Analysis
                       ------------------------------------

 Vector    1  Occ=2.000000D+00  E=-2.427956D+01

 Vector    2  Occ=2.000000D+00  E=-6.873814D-01

 Vector    3  Occ=2.000000D+00  E= 5.662594D-04

 Vector    4  Occ=2.000000D+00  E= 5.662594D-04

 Vector    5  Occ=2.000000D+00  E= 5.662594D-04

 Vector    6  Occ=0.000000D+00  E= 2.962069D-01

 Vector    7  Occ=0.000000D+00  E= 3.972623D-01

 Vector    8  Occ=0.000000D+00  E= 3.972623D-01

 Vector    9  Occ=0.000000D+00  E= 3.972623D-01

 Vector   10  Occ=0.000000D+00  E= 8.376102D-01

 Vector   11  Occ=0.000000D+00  E= 8.705827D-01

 Vector   12  Occ=0.000000D+00  E= 8.705827D-01

 Vector   13  Occ=0.000000D+00  E= 8.705827D-01

 Vector   14  Occ=0.000000D+00  E= 8.705827D-01

 Vector   15  Occ=0.000000D+00  E= 8.705827D-01

 Vector   16  Occ=0.000000D+00  E= 1.709166D+00

 Vector   17  Occ=0.000000D+00  E= 1.709166D+00

 Vector   18  Occ=0.000000D+00  E= 1.709166D+00

 Vector   19  Occ=0.000000D+00  E= 2.327922D+00

 Vector   20  Occ=0.000000D+00  E= 3.714429D+00

 Vector   21  Occ=0.000000D+00  E= 3.714429D+00

 Vector   22  Occ=0.000000D+00  E= 3.714429D+00

 Vector   23  Occ=0.000000D+00  E= 3.714429D+00

 Vector   24  Occ=0.000000D+00  E= 3.714429D+00

 Vector   25  Occ=0.000000D+00  E= 7.591955D+00

 Total times  cpu:       11.5s     wall:        9.6s
