============================== echo of input deck ==============================
start Sn2_saddle
title "СH3Cl+F=CH3F+Cl gas saddle+freq"
memory total 1500 mb
echo

charge -1
geometry units angstrom
  C   0.000   0.000   0.000
  H   0.000   1.080   0.000
  H   1.020  -0.360   0.000
  H  -1.020  -0.360   0.000
  F   0.000   0.000  -2.00
  Cl  0.000   0.000   2.20
end

basis
    * library def2-svpd
end

dft
  xc b3lyp
  mult 1
  grid xfine
  iterations 200
end

task dft saddle
task dft freq

#nwchem ~/СH3Cl+F=CH3F+Cl/inputs/gas_env/TS_via_saddle_freq.nw > ~/СH3Cl+F=CH3F+Cl/outputs/gas_env/TS_via_saddle_freq.out
#grep -i "Total DFT energy" "$HOME/СH3Cl+F=CH3F+Cl/outputs/gas_env/TS_via_saddle_freq.out"
================================================================================

         Total DFT energy =     -599.774066986206
@ Step       Energy      Delta E   Gmax     Grms     Xrms     Xmax   Walltime
@ ---- ---------------- -------- -------- -------- -------- -------- --------
@    0    -599.77406699  0.0D+00  0.01559  0.00644  0.00000  0.00000    134.5
         Total DFT energy =     -599.773206589693
@    1    -599.77320659  8.6D-04  0.01592  0.00674  0.00531  0.01091    148.0
         Total DFT energy =     -599.774000971202
@    2    -599.77400097 -7.9D-04  0.01597  0.00565  0.02488  0.05839    162.8
         Total DFT energy =     -599.775650124014
@    3    -599.77565012 -1.6D-03  0.01493  0.00478  0.02541  0.06108    177.6
         Total DFT energy =     -599.777257069994
@    4    -599.77725707 -1.6D-03  0.01289  0.00391  0.02694  0.04877    193.7
         Total DFT energy =     -599.778384429226
@    5    -599.77838443 -1.1D-03  0.01084  0.00329  0.01995  0.03748    209.7
         Total DFT energy =     -599.779358430504
@    6    -599.77935843 -9.7D-04  0.00882  0.00271  0.01768  0.03424    227.4
         Total DFT energy =     -599.780165012627
@    7    -599.78016501 -8.1D-04  0.00676  0.00211  0.01945  0.03681    243.3
         Total DFT energy =     -599.780768676703
@    8    -599.78076868 -6.0D-04  0.00465  0.00151  0.01800  0.03296    259.4
         Total DFT energy =     -599.781169947845
@    9    -599.78116995 -4.0D-04  0.00249  0.00093  0.01711  0.02949    274.0
         Total DFT energy =     -599.781386102471
@   10    -599.78138610 -2.2D-04  0.00098  0.00049  0.01627  0.03526    288.6
         Total DFT energy =     -599.781538318934
@   11    -599.78153832 -1.5D-04  0.00091  0.00045  0.01168  0.02534    302.0
         Total DFT energy =     -599.781657488174
@   12    -599.78165749 -1.2D-04  0.00098  0.00041  0.01499  0.04035    315.3
         Total DFT energy =     -599.781752564170
@   13    -599.78175256 -9.5D-05  0.00069  0.00026  0.01586  0.04415    327.3
         Total DFT energy =     -599.781796010178
@   14    -599.78179601 -4.3D-05  0.00023  0.00008  0.01582  0.04347    340.5
         Total DFT energy =     -599.781799001706
@   15    -599.78179900 -3.0D-06  0.00009  0.00003  0.00393  0.01056    352.6
         Total DFT energy =     -599.781799300508
@   16    -599.78179930 -3.0D-07  0.00005  0.00002  0.00069  0.00216    363.4
         Total DFT energy =     -599.781799432410
@   17    -599.78179943 -1.3D-07  0.00002  0.00001  0.00039  0.00126    372.8
@   17    -599.78179943 -1.3D-07  0.00002  0.00001  0.00039  0.00126    372.8

 Output coordinates in angstroms (scale by  1.889725989 to convert to a.u.)

  No.       Tag          Charge          X              Y              Z
 ---- ---------------- ---------- -------------- -------------- --------------
    1 C                    6.0000     0.04936606     0.41775121     0.00000000
    2 H                    1.0000     1.11744994     0.59158275     0.00000000
    3 H                    1.0000    -0.48390243     0.59654705     0.92445813
    4 H                    1.0000    -0.48390243     0.59654705    -0.92445813
    5 F                    9.0000     0.05417854     2.58722440     0.00000000
    6 Cl                  17.0000     0.04221088    -1.66366418     0.00000000

         Total DFT energy =     -599.781799462202

                       DFT Final Molecular Orbital Analysis
                       ------------------------------------

 Vector    1  Occ=2.000000D+00  E=-1.013396D+02

 Vector   21  Occ=0.000000D+00  E= 2.045336D-01

 Vector   22  Occ=0.000000D+00  E= 2.090966D-01

 Vector   23  Occ=0.000000D+00  E= 2.091097D-01

 Vector   24  Occ=0.000000D+00  E= 2.385584D-01

 Vector   25  Occ=0.000000D+00  E= 2.702872D-01

 Vector   26  Occ=0.000000D+00  E= 2.703049D-01

 Vector   27  Occ=0.000000D+00  E= 3.017601D-01

 Vector   28  Occ=0.000000D+00  E= 3.063175D-01

 Vector   29  Occ=0.000000D+00  E= 3.063478D-01

 Vector   30  Occ=0.000000D+00  E= 3.697725D-01

 Vector   31  Occ=0.000000D+00  E= 3.698203D-01

 Vector   32  Occ=0.000000D+00  E= 3.951747D-01

 Vector   33  Occ=0.000000D+00  E= 4.011523D-01

 Vector   34  Occ=0.000000D+00  E= 4.011998D-01

 Vector   35  Occ=0.000000D+00  E= 4.151428D-01

 Vector   36  Occ=0.000000D+00  E= 4.415349D-01

 Vector   37  Occ=0.000000D+00  E= 4.416352D-01

 Vector   38  Occ=0.000000D+00  E= 4.464942D-01

 Vector   39  Occ=0.000000D+00  E= 4.901873D-01

 Vector   40  Occ=0.000000D+00  E= 4.936824D-01

 Vector   41  Occ=0.000000D+00  E= 5.230556D-01

 Vector   42  Occ=0.000000D+00  E= 5.231087D-01

 Vector   43  Occ=0.000000D+00  E= 5.319457D-01

 Vector   44  Occ=0.000000D+00  E= 5.686031D-01

 Vector   45  Occ=0.000000D+00  E= 5.687258D-01

 Vector   46  Occ=0.000000D+00  E= 5.926242D-01

 Vector   47  Occ=0.000000D+00  E= 5.981174D-01

 Vector   48  Occ=0.000000D+00  E= 5.981210D-01

 Vector   49  Occ=0.000000D+00  E= 6.404998D-01

 Vector   50  Occ=0.000000D+00  E= 6.405721D-01

 Vector   51  Occ=0.000000D+00  E= 6.840243D-01

 Vector   52  Occ=0.000000D+00  E= 8.039413D-01

 Vector   53  Occ=0.000000D+00  E= 8.548004D-01

 Vector   54  Occ=0.000000D+00  E= 9.028188D-01

 Vector   55  Occ=0.000000D+00  E= 9.028873D-01

 Vector   56  Occ=0.000000D+00  E= 9.671238D-01

 Vector   57  Occ=0.000000D+00  E= 9.673649D-01

 Vector   58  Occ=0.000000D+00  E= 1.015154D+00

 Vector   59  Occ=0.000000D+00  E= 1.046051D+00

 Vector   60  Occ=0.000000D+00  E= 1.046074D+00

 Vector   61  Occ=0.000000D+00  E= 1.088318D+00

 Vector   62  Occ=0.000000D+00  E= 1.133538D+00

 Vector   63  Occ=0.000000D+00  E= 1.133780D+00

 Vector   64  Occ=0.000000D+00  E= 1.160352D+00

 Vector   65  Occ=0.000000D+00  E= 1.160405D+00

 Vector   66  Occ=0.000000D+00  E= 1.190293D+00

 Vector   67  Occ=0.000000D+00  E= 1.252536D+00

 Vector   68  Occ=0.000000D+00  E= 1.286055D+00

 Vector   69  Occ=0.000000D+00  E= 1.286066D+00

 Vector   70  Occ=0.000000D+00  E= 1.295795D+00

 Vector   71  Occ=0.000000D+00  E= 1.359089D+00

 Vector   72  Occ=0.000000D+00  E= 1.359117D+00

 Vector   73  Occ=0.000000D+00  E= 1.478257D+00

 Vector   74  Occ=0.000000D+00  E= 1.682539D+00

 Vector   75  Occ=0.000000D+00  E= 1.682865D+00

 Vector   76  Occ=0.000000D+00  E= 1.686376D+00

 Vector   77  Occ=0.000000D+00  E= 1.737526D+00

 Vector   78  Occ=0.000000D+00  E= 1.738114D+00

 Vector   79  Occ=0.000000D+00  E= 1.783558D+00

 Vector   80  Occ=0.000000D+00  E= 2.007112D+00

 Vector   81  Occ=0.000000D+00  E= 2.007332D+00

 Vector   82  Occ=0.000000D+00  E= 2.025407D+00

 Vector   83  Occ=0.000000D+00  E= 2.257689D+00

 Vector   84  Occ=0.000000D+00  E= 2.330065D+00

 Vector   85  Occ=0.000000D+00  E= 2.330533D+00

 Vector   86  Occ=0.000000D+00  E= 2.330535D+00

 Vector   87  Occ=0.000000D+00  E= 2.607955D+00

 Vector   88  Occ=0.000000D+00  E= 2.608055D+00

 Vector   89  Occ=0.000000D+00  E= 2.626212D+00

 Vector   90  Occ=0.000000D+00  E= 3.063739D+00

 Vector   91  Occ=0.000000D+00  E= 3.165341D+00

 Vector   92  Occ=0.000000D+00  E= 3.165462D+00

 Vector   93  Occ=0.000000D+00  E= 3.669568D+00

 Vector   94  Occ=0.000000D+00  E= 3.669570D+00

 Vector   95  Occ=0.000000D+00  E= 3.728042D+00

 Vector   96  Occ=0.000000D+00  E= 3.728119D+00

 Vector   97  Occ=0.000000D+00  E= 3.797954D+00

 Vector   98  Occ=0.000000D+00  E= 4.142098D+00

 Vector   99  Occ=0.000000D+00  E= 5.418945D+00

 Vector  100  Occ=0.000000D+00  E= 7.610647D+00

     Multipole analysis of the density
     ---------------------------------

     L   x y z        total         alpha         beta         nuclear
     -   - - -        -----         -----         ----         -------
     0   0 0 0     -1.000000    -18.000000    -18.000000     35.000000

     1   1 0 0     -0.093195     -1.606598     -1.606598      3.120000
     1   0 1 0     -1.812261     -0.238975     -0.238975     -1.334312
     1   0 0 1     -0.000000     -0.000000     -0.000000      0.000000

     2   2 0 0    -21.190144    -13.788224    -13.788224      6.386303
     2   1 1 0     -0.231309     -0.607011     -0.607011      0.982712
     2   1 0 1     -0.000000     -0.000000     -0.000000      0.000000
     2   0 2 0    -46.749304   -218.720099   -218.720099    390.690893
     2   0 1 1     -0.000000     -0.000000     -0.000000      0.000000

 Zero-Point correction to Energy  =   23.281 kcal/mol  (  0.037100 au)
 Thermal correction to Energy     =   26.126 kcal/mol  (  0.041634 au)
 Thermal correction to Enthalpy   =   26.718 kcal/mol  (  0.042578 au)
 Total Entropy                    =   68.320 cal/mol-K
   - Translational                =   38.594 cal/mol-K (mol. weight =  68.9907)
   - Rotational                   =   23.612 cal/mol-K (symmetry #  =        1)
   - Vibrational                  =    6.114 cal/mol-K
   - Translational                  =    2.979 cal/mol-K
   - Rotational                     =    2.979 cal/mol-K
   - Vibrational                    =    6.829 cal/mol-K
 P.Frequency     -312.73       -0.00       -0.00       -0.00       -0.00       -0.00
 P.Frequency        0.00      206.83      206.94      266.03      926.05      926.20
 P.Frequency     1099.26     1381.52     1381.57     3176.10     3361.08     3361.21

 Normal Eigenvalue ||           Projected Infra Red Intensities
  Mode   [cm**-1]  || [atomic units] [(debye/angs)**2] [(KM/mol)] [arbitrary]
 ------ ---------- || -------------- ----------------- ---------- -----------
    1     -312.730 ||    0.877905          20.254       855.825     156.871
    2       -0.000 ||    0.001841           0.042         1.794       0.329
    3       -0.000 ||    0.015423           0.356        15.035       2.756
    4       -0.000 ||    0.001528           0.035         1.489       0.273
    5       -0.000 ||    0.016742           0.386        16.321       2.992
    6       -0.000 ||    0.014495           0.334        14.130       2.590
    7        0.000 ||    0.002043           0.047         1.992       0.365
    8      206.832 ||    0.019309           0.445        18.823       3.450
    9      206.940 ||    0.019307           0.445        18.821       3.450
   10      266.033 ||    0.000188           0.004         0.184       0.034
   11      926.050 ||    0.000229           0.005         0.223       0.041
   12      926.201 ||    0.000230           0.005         0.224       0.041
   13     1099.261 ||    0.028273           0.652        27.562       5.052
   14     1381.516 ||    0.004856           0.112         4.734       0.868
   15     1381.572 ||    0.004843           0.112         4.722       0.865
   16     3176.100 ||    0.000032           0.001         0.031       0.006
   17     3361.076 ||    0.000049           0.001         0.048       0.009
   18     3361.206 ||    0.000051           0.001         0.049       0.009
 ----------------------------------------------------------------------------

 Total times  cpu:     1547.0s     wall:      694.1s
