============================== echo of input deck ==============================
start CH3F_opt_freq
title "CH3F gas opt+freq"
memory total 2000 mb
echo
scratch_dir /mnt/c/Users/ddizy/Desktop/qcproject/reactions/sn2_methylchloride_f_attack/runs_nwchem/gas_phase/scratch
permanent_dir /mnt/c/Users/ddizy/Desktop/qcproject/reactions/sn2_methylchloride_f_attack/runs_nwchem/gas_phase/perm

charge 0
geometry units angstrom
 C   0.000   0.000   0.000
 H   0.000   1.080   0.000
 H   1.020  -0.360   0.000
 H  -1.020  -0.360   0.000
 F  0.000   0.000   1.3
end

basis
    * library def2-svpd
end

dft
  xc b3lyp
  grid xfine
  iterations 200
end

task dft optimize
task dft freq

#nwchem ~/СH3Cl+F=CH3F+Cl/inputs/gas_env/CH3F_opt_freq.nw > ~/СH3Cl+F=CH3F+Cl/outputs/gas_env/CH3F_opt_freq.out
#grep -i "Total DFT energy" "$HOME/СH3Cl+F=CH3F+Cl/outputs/gas_env/CH3F_opt_freq.out"
================================================================================

         Total DFT energy =     -139.570732293733
@ Step       Energy      Delta E   Gmax     Grms     Xrms     Xmax   Walltime
@ ---- ---------------- -------- -------- -------- -------- -------- --------
@    0    -139.57073229  0.0D+00  0.18840  0.07070  0.00000  0.00000     99.0
         Total DFT energy =     -139.634960440756
         Total DFT energy =   -139.634960440756
@    1    -139.63496044 -6.4D-02  0.02094  0.01321  0.13599  0.40216    162.1
         Total DFT energy =     -139.646062540915
         Total DFT energy =     -139.650692303252
@    2    -139.65069230 -1.6D-02  0.01469  0.00839  0.11367  0.21212    205.2
         Total DFT energy =     -139.652353678725
         Total DFT energy =     -139.652414726210
@    3    -139.65241473 -1.7D-03  0.00504  0.00179  0.02240  0.06677    249.2
         Total DFT energy =     -139.652465540827
         Total DFT energy =   -139.652465540827
@    4    -139.65246554 -5.1D-05  0.00072  0.00032  0.00448  0.00859    269.4
         Total DFT energy =     -139.652467451738
         Total DFT energy =   -139.652467451738
@    5    -139.65246745 -1.9D-06  0.00011  0.00005  0.00101  0.00184    286.3
         Total DFT energy =     -139.652467565444

 Vector   63  Occ=0.000000D+00  E= 2.977390D+00  Symmetry=a'

 Vector   64  Occ=0.000000D+00  E= 2.977409D+00  Symmetry=a"

 Vector   65  Occ=0.000000D+00  E= 3.385692D+00  Symmetry=a"

 Vector   66  Occ=0.000000D+00  E= 3.385694D+00  Symmetry=a'

 Vector   67  Occ=0.000000D+00  E= 3.475879D+00  Symmetry=a'

 Vector   68  Occ=0.000000D+00  E= 3.475890D+00  Symmetry=a"

 Vector   69  Occ=0.000000D+00  E= 3.839349D+00  Symmetry=a'

 Vector   70  Occ=0.000000D+00  E= 5.327653D+00  Symmetry=a'

 Vector   71  Occ=0.000000D+00  E= 7.316748D+00  Symmetry=a'

         Total DFT energy =   -139.652467565444
@    6    -139.65246757 -1.1D-07  0.00003  0.00001  0.00022  0.00046    310.8
@    6    -139.65246757 -1.1D-07  0.00003  0.00001  0.00022  0.00046    310.8

 Output coordinates in angstroms (scale by  1.889725989 to convert to a.u.)

  No.       Tag          Charge          X              Y              Z
 ---- ---------------- ---------- -------------- -------------- --------------
    1 C                    6.0000     0.04570439     0.45794918     0.00000000
    2 H                    1.0000     1.09685293     0.78137983     0.00000000
    3 H                    1.0000    -0.46561467     0.82340879     0.90243537
    4 H                    1.0000    -0.46561467     0.82340879    -0.90243537
    5 F                    9.0000     0.00834471    -0.93119290     0.00000000

         Total DFT energy =     -139.652467522587

                       DFT Final Molecular Orbital Analysis
                       ------------------------------------

 Vector    1  Occ=2.000000D+00  E=-2.469870D+01

 Vector    2  Occ=2.000000D+00  E=-1.027596D+01

 Vector    3  Occ=2.000000D+00  E=-1.178501D+00

 Vector    4  Occ=2.000000D+00  E=-6.992239D-01

 Vector    5  Occ=2.000000D+00  E=-4.968230D-01

 Vector    6  Occ=2.000000D+00  E=-4.893871D-01

 Vector    7  Occ=2.000000D+00  E=-4.893745D-01

 Vector    8  Occ=2.000000D+00  E=-3.562603D-01

 Vector    9  Occ=2.000000D+00  E=-3.562496D-01

 Vector   10  Occ=0.000000D+00  E= 1.558689D-02

 Vector   11  Occ=0.000000D+00  E= 4.897281D-02

 Vector   12  Occ=0.000000D+00  E= 9.316100D-02

 Vector   13  Occ=0.000000D+00  E= 9.316364D-02

 Vector   14  Occ=0.000000D+00  E= 1.376137D-01

 Vector   15  Occ=0.000000D+00  E= 1.408767D-01

 Vector   16  Occ=0.000000D+00  E= 1.408830D-01

 Vector   17  Occ=0.000000D+00  E= 1.717583D-01

 Vector   18  Occ=0.000000D+00  E= 1.717628D-01

 Vector   19  Occ=0.000000D+00  E= 2.309806D-01

 Vector   20  Occ=0.000000D+00  E= 2.470072D-01

 Vector   21  Occ=0.000000D+00  E= 2.967266D-01

 Vector   22  Occ=0.000000D+00  E= 2.979106D-01

 Vector   23  Occ=0.000000D+00  E= 2.979109D-01

 Vector   24  Occ=0.000000D+00  E= 3.380737D-01

 Vector   25  Occ=0.000000D+00  E= 3.508512D-01

 Vector   26  Occ=0.000000D+00  E= 3.508657D-01

 Vector   27  Occ=0.000000D+00  E= 3.731775D-01

 Vector   28  Occ=0.000000D+00  E= 4.032038D-01

 Vector   29  Occ=0.000000D+00  E= 4.032071D-01

 Vector   30  Occ=0.000000D+00  E= 4.334258D-01

 Vector   31  Occ=0.000000D+00  E= 4.995022D-01

 Vector   32  Occ=0.000000D+00  E= 4.995040D-01

 Vector   33  Occ=0.000000D+00  E= 5.067006D-01

 Vector   34  Occ=0.000000D+00  E= 6.342946D-01

 Vector   35  Occ=0.000000D+00  E= 6.776830D-01

 Vector   36  Occ=0.000000D+00  E= 6.776856D-01

 Vector   37  Occ=0.000000D+00  E= 7.186825D-01

 Vector   38  Occ=0.000000D+00  E= 7.494219D-01

 Vector   39  Occ=0.000000D+00  E= 7.494231D-01

 Vector   40  Occ=0.000000D+00  E= 9.109211D-01

 Vector   41  Occ=0.000000D+00  E= 9.109439D-01

 Vector   42  Occ=0.000000D+00  E= 9.368461D-01

 Vector   43  Occ=0.000000D+00  E= 9.570196D-01

 Vector   44  Occ=0.000000D+00  E= 9.570227D-01

 Vector   45  Occ=0.000000D+00  E= 9.932266D-01

 Vector   46  Occ=0.000000D+00  E= 1.255311D+00

 Vector   47  Occ=0.000000D+00  E= 1.507017D+00

 Vector   48  Occ=0.000000D+00  E= 1.507022D+00

 Vector   49  Occ=0.000000D+00  E= 1.627839D+00

 Vector   50  Occ=0.000000D+00  E= 1.627848D+00

 Vector   51  Occ=0.000000D+00  E= 1.629396D+00

 Vector   52  Occ=0.000000D+00  E= 1.879721D+00

 Vector   53  Occ=0.000000D+00  E= 1.879771D+00

 Vector   54  Occ=0.000000D+00  E= 1.894455D+00

 Vector   55  Occ=0.000000D+00  E= 2.059660D+00

 Vector   56  Occ=0.000000D+00  E= 2.096532D+00

 Vector   57  Occ=0.000000D+00  E= 2.096556D+00

 Vector   58  Occ=0.000000D+00  E= 2.192785D+00

 Vector   59  Occ=0.000000D+00  E= 2.265095D+00

 Vector   60  Occ=0.000000D+00  E= 2.472660D+00

 Vector   61  Occ=0.000000D+00  E= 2.472687D+00

 Vector   62  Occ=0.000000D+00  E= 2.724305D+00

 Vector   63  Occ=0.000000D+00  E= 2.977376D+00

 Vector   64  Occ=0.000000D+00  E= 2.977396D+00

 Vector   65  Occ=0.000000D+00  E= 3.385678D+00

 Vector   66  Occ=0.000000D+00  E= 3.385681D+00

 Vector   67  Occ=0.000000D+00  E= 3.475865D+00

 Vector   68  Occ=0.000000D+00  E= 3.475876D+00

 Vector   69  Occ=0.000000D+00  E= 3.839333D+00

 Vector   70  Occ=0.000000D+00  E= 5.327628D+00

 Vector   71  Occ=0.000000D+00  E= 7.316733D+00

     Multipole analysis of the density
     ---------------------------------

     L   x y z        total         alpha         beta         nuclear
     -   - - -        -----         -----         ----         -------
     0   0 0 0     -0.000000     -9.000000     -9.000000     18.000000

     1   1 0 0      0.020177     -0.476471     -0.476471      0.973119
     1   0 1 0      0.750272      3.403274      3.403274     -6.056276
     1   0 0 1     -0.000000     -0.000000     -0.000000      0.000000

     2   2 0 0     -8.931280     -7.411483     -7.411483      5.891686
     2   1 1 0      0.017587     -0.251757     -0.251757      0.521101
     2   1 0 1      0.000000      0.000000      0.000000      0.000000
     2   0 2 0    -10.039093    -24.712083    -24.712083     39.385073
     2   0 1 1     -0.000000     -0.000000     -0.000000      0.000000

 Zero-Point correction to Energy  =   24.414 kcal/mol  (  0.038906 au)
 Thermal correction to Energy     =   26.243 kcal/mol  (  0.041821 au)
 Thermal correction to Enthalpy   =   26.835 kcal/mol  (  0.042764 au)
 Total Entropy                    =   55.400 cal/mol-K
   - Translational                =   36.488 cal/mol-K (mol. weight =  34.0219)
   - Rotational                   =   18.706 cal/mol-K (symmetry #  =        1)
   - Vibrational                  =    0.206 cal/mol-K
   - Translational                  =    2.979 cal/mol-K
   - Rotational                     =    2.979 cal/mol-K
   - Vibrational                    =    1.014 cal/mol-K
 P.Frequency       -0.00       -0.00       -0.00        0.00        0.00        0.00
 P.Frequency     1052.72     1184.45     1184.46     1448.29     1461.46     1461.54
 P.Frequency     3034.33     3129.14     3129.52

 Normal Eigenvalue ||           Projected Infra Red Intensities
  Mode   [cm**-1]  || [atomic units] [(debye/angs)**2] [(KM/mol)] [arbitrary]
 ------ ---------- || -------------- ----------------- ---------- -----------
    1       -0.000 ||    0.000008           0.000         0.008       0.006
    2       -0.000 ||    0.001930           0.045         1.882       1.260
    3       -0.000 ||    0.003578           0.083         3.488       2.336
    4        0.000 ||    0.003323           0.077         3.240       2.170
    5        0.000 ||    0.002695           0.062         2.627       1.759
    6        0.000 ||    0.004373           0.101         4.263       2.855
    7     1052.725 ||    0.116424           2.686       113.496      76.008
    8     1184.448 ||    0.001023           0.024         0.997       0.668
    9     1184.456 ||    0.001024           0.024         0.998       0.668
   10     1448.291 ||    0.000787           0.018         0.767       0.514
   11     1461.460 ||    0.006034           0.139         5.882       3.939
   12     1461.539 ||    0.006033           0.139         5.882       3.939
   13     3034.326 ||    0.034154           0.788        33.295      22.298
   14     3129.138 ||    0.024195           0.558        23.587      15.796
   15     3129.520 ||    0.024178           0.558        23.570      15.785
 ----------------------------------------------------------------------------

 Total times  cpu:     2550.5s     wall:     1305.1s
