============================== echo of input deck ==============================
start CH3Cl_opt_freq
title "CH3Cl acetone opt+freq"
memory total 2000 mb
echo

charge 0
geometry units angstrom
 C   0.000   0.000   0.000
 H   0.000   1.080   0.000
 H   1.020  -0.360   0.000
 H  -1.020  -0.360   0.000
 Cl  0.000   0.000   1.78
end

basis
    * library def2-svpd
end

dft
  xc b3lyp
  grid xfine
  iterations 200
end

cosmo
 dielec 25.2
 lineq  0
end

task dft optimize
task dft freq

#nwchem ~/СH3Cl+F=CH3F+Cl/inputs/acetone_env/CH3Cl_opt_freq.nw > ~/СH3Cl+F=CH3F+Cl/outputs/acetone_env/CH3Cl_opt_freq.out
#grep -i "Total DFT energy" "$HOME/СH3Cl+F=CH3F+Cl/outputs/acetone_env/CH3Cl_opt_freq.out"
================================================================================

         Total DFT energy =     -499.925090839304
@ Step       Energy      Delta E   Gmax     Grms     Xrms     Xmax   Walltime
@ ---- ---------------- -------- -------- -------- -------- -------- --------
@    0    -499.92509084  0.0D+00  0.07593  0.03441  0.00000  0.00000     36.6
         Total DFT energy =     -499.956560314300
         Total DFT energy =     -499.959903425618
@    1    -499.95990343 -3.5D-02  0.01811  0.00944  0.14272  0.40484    103.3
         Total DFT energy =     -499.969059663769
         Total DFT energy =     -499.972654345579
@    2    -499.97265435 -1.3D-02  0.00798  0.00445  0.11172  0.23936    172.8
         Total DFT energy =     -499.973779814178
         Total DFT energy =   -499.973779814178
@    3    -499.97377981 -1.1D-03  0.00169  0.00077  0.03864  0.09421    222.8
         Total DFT energy =     -499.973804266698
         Total DFT energy =   -499.973804266698
@    4    -499.97380427 -2.4D-05  0.00031  0.00013  0.00518  0.01057    270.2
         Total DFT energy =     -499.973804830585

 Vector   71  Occ=0.000000D+00  E= 2.768325D+00  Symmetry=a'

 Vector   72  Occ=0.000000D+00  E= 2.993898D+00  Symmetry=a"

 Vector   73  Occ=0.000000D+00  E= 2.993959D+00  Symmetry=a'

 Vector   74  Occ=0.000000D+00  E= 3.942694D+00  Symmetry=a'

 Vector   75  Occ=0.000000D+00  E= 5.217416D+00  Symmetry=a'

         Total DFT energy =   -499.973804830585
@    5    -499.97380483 -5.6D-07  0.00002  0.00001  0.00069  0.00114    307.1
@    5    -499.97380483 -5.6D-07  0.00002  0.00001  0.00069  0.00114    307.1

 Output coordinates in angstroms (scale by  1.889725989 to convert to a.u.)

  No.       Tag          Charge          X              Y              Z
 ---- ---------------- ---------- -------------- -------------- --------------
    1 C                    6.0000     0.05088220     0.97097623     0.00000000
    2 H                    1.0000     1.10111780     1.27953760     0.00000000
    3 H                    1.0000    -0.46180171     1.31779916     0.90280916
    4 H                    1.0000    -0.46180171     1.31779916    -0.90280916
    5 Cl                  17.0000     0.00509208    -0.84316583     0.00000000

         Total DFT energy =     -499.973804830585

                       DFT Final Molecular Orbital Analysis
                       ------------------------------------

 Vector    1  Occ=2.000000D+00  E=-1.015446D+02  Symmetry=a'

 Vector    2  Occ=2.000000D+00  E=-1.025271D+01  Symmetry=a'

 Vector    3  Occ=2.000000D+00  E=-9.475306D+00  Symmetry=a'

 Vector    4  Occ=2.000000D+00  E=-7.245213D+00  Symmetry=a'

 Vector    5  Occ=2.000000D+00  E=-7.235830D+00  Symmetry=a'

 Vector    6  Occ=2.000000D+00  E=-7.235830D+00  Symmetry=a"

 Vector    7  Occ=2.000000D+00  E=-8.561173D-01  Symmetry=a'

 Vector    8  Occ=2.000000D+00  E=-6.746484D-01  Symmetry=a'

 Vector    9  Occ=2.000000D+00  E=-4.484477D-01  Symmetry=a'

 Vector   10  Occ=2.000000D+00  E=-4.483878D-01  Symmetry=a"

 Vector   11  Occ=2.000000D+00  E=-4.193212D-01  Symmetry=a'

 Vector   12  Occ=2.000000D+00  E=-3.125668D-01  Symmetry=a'

 Vector   13  Occ=2.000000D+00  E=-3.125422D-01  Symmetry=a"

 Vector   14  Occ=0.000000D+00  E=-3.519714D-03  Symmetry=a'

 Vector   15  Occ=0.000000D+00  E= 1.337420D-02  Symmetry=a'

 Vector   16  Occ=0.000000D+00  E= 6.601572D-02  Symmetry=a'

 Vector   17  Occ=0.000000D+00  E= 6.611230D-02  Symmetry=a"

 Vector   18  Occ=0.000000D+00  E= 8.149219D-02  Symmetry=a'

 Vector   19  Occ=0.000000D+00  E= 8.985322D-02  Symmetry=a'

 Vector   20  Occ=0.000000D+00  E= 1.207321D-01  Symmetry=a'

 Vector   21  Occ=0.000000D+00  E= 1.208473D-01  Symmetry=a"

 Vector   22  Occ=0.000000D+00  E= 1.575740D-01  Symmetry=a'

 Vector   23  Occ=0.000000D+00  E= 1.576344D-01  Symmetry=a"

 Vector   24  Occ=0.000000D+00  E= 2.092883D-01  Symmetry=a'

 Vector   25  Occ=0.000000D+00  E= 2.095792D-01  Symmetry=a"

 Vector   26  Occ=0.000000D+00  E= 2.132113D-01  Symmetry=a'

 Vector   27  Occ=0.000000D+00  E= 2.520775D-01  Symmetry=a'

 Vector   28  Occ=0.000000D+00  E= 2.530074D-01  Symmetry=a"

 Vector   29  Occ=0.000000D+00  E= 2.835223D-01  Symmetry=a'

 Vector   30  Occ=0.000000D+00  E= 3.218284D-01  Symmetry=a'

 Vector   31  Occ=0.000000D+00  E= 3.478361D-01  Symmetry=a"

 Vector   32  Occ=0.000000D+00  E= 3.499698D-01  Symmetry=a'

 Vector   33  Occ=0.000000D+00  E= 3.502086D-01  Symmetry=a"

 Vector   34  Occ=0.000000D+00  E= 3.566750D-01  Symmetry=a'

 Vector   35  Occ=0.000000D+00  E= 3.770263D-01  Symmetry=a'

 Vector   36  Occ=0.000000D+00  E= 3.900323D-01  Symmetry=a"

 Vector   37  Occ=0.000000D+00  E= 3.900897D-01  Symmetry=a'

 Vector   38  Occ=0.000000D+00  E= 4.258504D-01  Symmetry=a'

 Vector   39  Occ=0.000000D+00  E= 4.402158D-01  Symmetry=a'

 Vector   40  Occ=0.000000D+00  E= 4.403205D-01  Symmetry=a"

 Vector   41  Occ=0.000000D+00  E= 4.779543D-01  Symmetry=a'

 Vector   42  Occ=0.000000D+00  E= 4.780179D-01  Symmetry=a"

 Vector   43  Occ=0.000000D+00  E= 5.203246D-01  Symmetry=a'

 Vector   44  Occ=0.000000D+00  E= 8.174664D-01  Symmetry=a'

 Vector   45  Occ=0.000000D+00  E= 8.175632D-01  Symmetry=a"

 Vector   46  Occ=0.000000D+00  E= 8.325079D-01  Symmetry=a'

 Vector   47  Occ=0.000000D+00  E= 8.524365D-01  Symmetry=a'

 Vector   48  Occ=0.000000D+00  E= 8.525190D-01  Symmetry=a"

 Vector   49  Occ=0.000000D+00  E= 9.274327D-01  Symmetry=a'

 Vector   50  Occ=0.000000D+00  E= 9.598730D-01  Symmetry=a'

 Vector   51  Occ=0.000000D+00  E= 9.603968D-01  Symmetry=a"

 Vector   52  Occ=0.000000D+00  E= 9.876896D-01  Symmetry=a'

 Vector   53  Occ=0.000000D+00  E= 1.084131D+00  Symmetry=a'

 Vector   54  Occ=0.000000D+00  E= 1.108785D+00  Symmetry=a'

 Vector   55  Occ=0.000000D+00  E= 1.108910D+00  Symmetry=a"

 Vector   56  Occ=0.000000D+00  E= 1.234862D+00  Symmetry=a'

 Vector   57  Occ=0.000000D+00  E= 1.234980D+00  Symmetry=a"

 Vector   58  Occ=0.000000D+00  E= 1.256493D+00  Symmetry=a'

 Vector   59  Occ=0.000000D+00  E= 1.502562D+00  Symmetry=a'

 Vector   60  Occ=0.000000D+00  E= 1.524822D+00  Symmetry=a'

 Vector   61  Occ=0.000000D+00  E= 1.525065D+00  Symmetry=a"

 Vector   62  Occ=0.000000D+00  E= 1.635561D+00  Symmetry=a"

 Vector   63  Occ=0.000000D+00  E= 1.834207D+00  Symmetry=a'

 Vector   64  Occ=0.000000D+00  E= 1.834311D+00  Symmetry=a"

 Vector   65  Occ=0.000000D+00  E= 2.016037D+00  Symmetry=a'

 Vector   66  Occ=0.000000D+00  E= 2.016052D+00  Symmetry=a"

 Vector   67  Occ=0.000000D+00  E= 2.077967D+00  Symmetry=a'

 Vector   68  Occ=0.000000D+00  E= 2.231509D+00  Symmetry=a'

 Vector   69  Occ=0.000000D+00  E= 2.473631D+00  Symmetry=a'

 Vector   70  Occ=0.000000D+00  E= 2.473820D+00  Symmetry=a"

 Vector   71  Occ=0.000000D+00  E= 2.768325D+00  Symmetry=a'

 Vector   72  Occ=0.000000D+00  E= 2.993898D+00  Symmetry=a"

 Vector   73  Occ=0.000000D+00  E= 2.993959D+00  Symmetry=a'

 Vector   74  Occ=0.000000D+00  E= 3.942694D+00  Symmetry=a'

 Vector   75  Occ=0.000000D+00  E= 5.217416D+00  Symmetry=a'

     Multipole analysis of the density
     ---------------------------------

     L   x y z        total         alpha         beta         nuclear
     -   - - -        -----         -----         ----         -------
     0   0 0 0     -0.000000    -13.000000    -13.000000     26.000000

     1   1 0 0      0.025015     -0.525472     -0.525472      1.075959
     1   0 1 0      1.052674      4.865928      4.865928     -8.679182
     1   0 0 1      0.000000      0.000000      0.000000      0.000000

     2   2 0 0    -15.005583    -10.457770    -10.457770      5.909957
     2   1 1 0      0.074065     -0.704394     -0.704394      1.482853
     2   1 0 1     -0.000000     -0.000000     -0.000000      0.000000
     2   0 2 0    -14.110619    -47.860006    -47.860006     81.609394
     2   0 1 1     -0.000000     -0.000000     -0.000000      0.000000

         Total DFT energy =     -499.973775803219
         Total DFT energy =     -499.973776044843
         Total DFT energy =     -499.973789550346
         Total DFT energy =     -499.973789432026
         Total DFT energy =     -499.973775846252
         Total DFT energy =     -499.973775857226
         Total DFT energy =     -499.973788226689
         Total DFT energy =     -499.973788394794
         Total DFT energy =     -499.973801534979
         Total DFT energy =     -499.973801151091
         Total DFT energy =     -499.973802769453
         Total DFT energy =     -499.973802767129
         Total DFT energy =     -499.973799371316
         Total DFT energy =     -499.973799373742
         Total DFT energy =     -499.973800931452
         Total DFT energy =     -499.973801184872
         Total DFT energy =     -499.973792133189
         Total DFT energy =     -499.973792086075
         Total DFT energy =     -499.973804133715
         Total DFT energy =     -499.973803511965
         Total DFT energy =     -499.973795041231
         Total DFT energy =     -499.973795106757
         Total DFT energy =     -499.973803803358
         Total DFT energy =     -499.973803845674
 Zero-Point correction to Energy  =   23.381 kcal/mol  (  0.037259 au)
 Thermal correction to Energy     =   25.291 kcal/mol  (  0.040303 au)
 Thermal correction to Enthalpy   =   25.883 kcal/mol  (  0.041247 au)
 Total Entropy                    =   58.250 cal/mol-K
   - Translational                =   37.635 cal/mol-K (mol. weight =  49.9923)
   - Rotational                   =   20.057 cal/mol-K (symmetry #  =        1)
   - Vibrational                  =    0.559 cal/mol-K
   - Translational                  =    2.979 cal/mol-K
   - Rotational                     =    2.979 cal/mol-K
   - Vibrational                    =    1.915 cal/mol-K
 P.Frequency       -0.00       -0.00       -0.00       -0.00       -0.00        0.00
 P.Frequency      685.86     1009.60     1011.08     1336.80     1420.72     1425.42
 P.Frequency     3079.11     3196.35     3197.89

 Normal Eigenvalue ||           Projected Infra Red Intensities
  Mode   [cm**-1]  || [atomic units] [(debye/angs)**2] [(KM/mol)] [arbitrary]
 ------ ---------- || -------------- ----------------- ---------- -----------
    1       -0.000 ||    0.003507           0.081         3.419       3.583
    2       -0.000 ||    0.005158           0.119         5.028       5.270
    3       -0.000 ||    0.000003           0.000         0.003       0.003
    4       -0.000 ||    0.002285           0.053         2.227       2.335
    5       -0.000 ||    0.002200           0.051         2.145       2.248
    6        0.000 ||    0.001758           0.041         1.714       1.796
    7      685.864 ||    0.055050           1.270        53.665      56.247
    8     1009.599 ||    0.004275           0.099         4.168       4.368
    9     1011.078 ||    0.004312           0.099         4.204       4.406
   10     1336.800 ||    0.018416           0.425        17.953      18.817
   11     1420.723 ||    0.014432           0.333        14.069      14.746
   12     1425.422 ||    0.015868           0.366        15.469      16.213
   13     3079.106 ||    0.017890           0.413        17.440      18.279
   14     3196.352 ||    0.000824           0.019         0.803       0.842
   15     3197.890 ||    0.000827           0.019         0.807       0.845
 ----------------------------------------------------------------------------

 Total times  cpu:     8962.9s     wall:     4287.5s
